#  2D Square lattice input datafile with 4 particles

4 atoms
1 atom types

-50 50 xlo xhi
-50 50 ylo yhi
-10 10 zlo zhi

Masses

1 1.

Atoms

1 1 0 -50.0 -50.0 0.0 0.0 0.0 0.0 0 0 0
2 1 0 -49.0 -50.0 0.0 0.0 0.0 0.0 0 0 0
3 1 0 -48.0 -50.0 0.0 0.0 0.0 0.0 0 0 0
4 1 0 -47.0 -50.0 0.0 0.0 0.0 0.0 0 0 0

Velocities

1 0.0 0.0 0.0
2 0.0 0.0 0.0
3 0.0 0.0 0.0
4 0.0 0.0 0.0
