#  2D Square lattice input datafile

4 atoms
1 atom types

-57.2057 57.2057 xlo xhi
-57.2057 57.2057 ylo yhi
-11.4411 11.4411 zlo zhi

Masses

1 1.

Atoms

1 1 0 -57.205702054 -57.205702054 0.0 0.0 0.0 0.0 0 0 0
2 1 0 0.0 -57.205702054 0.0 0.0 0.0 0.0 0 0 0
3 1 0 -57.205702054 0.0 0.0 0.0 0.0 0.0 0 0 0
4 1 0 0.0 0.0 0.0 0.0 0.0 0.0 0 0 0

Velocities

1 0.0 0.0 0.0
2 0.0 0.0 0.0
3 0.0 0.0 0.0
4 0.0 0.0 0.0