LAMMPS (29 Sep 2021 - Update 3)
OMP_NUM_THREADS environment is not set. Defaulting to 1 thread. (src/comm.cpp:98)
  using 1 OpenMP thread(s) per MPI task
Reading data file ...
  orthogonal box = (-57.205700 -57.205700 -11.441100) to (57.205700 57.205700 11.441100)
  1 by 1 by 1 MPI processor grid
  reading atoms ...
  10000 atoms
  reading velocities ...
  10000 velocities
  read_data CPU = 0.023 seconds
Neighbor list info ...
  update every 1 steps, delay 0 steps, check yes
  max neighbors/atom: 2000, page size: 100000
  master list distance cutoff = 1.2
  ghost atom cutoff = 1.2
  binsize = 0.6, bins = 191 191 39
  1 neighbor lists, perpetual/occasional/extra = 1 0 0
  (1) pair mie/cut, perpetual
      attributes: half, newton on
      pair build: half/bin/atomonly/newton
      stencil: half/bin/2d
      bin: standard
Setting up Verlet run ...
  Unit style    : lj
  Current step  : 0
  Time step     : 0.005
Per MPI rank memory allocation (min/avg/max) = 5.809 | 5.809 | 5.809 Mbytes
Step Temp E_pair E_mol TotEng Press 
       0            0            0            0            0            0 
  100000   0.14582282 -0.083968489            0  0.061839748   0.70218805 
Loop time of 228.313 on 1 procs for 100000 steps with 10000 atoms

Performance: 189214.219 tau/day, 437.996 timesteps/s
99.7% CPU use with 1 MPI tasks x 1 OpenMP threads

MPI task timing breakdown:
Section |  min time  |  avg time  |  max time  |%varavg| %total
---------------------------------------------------------------
Pair    | 24.879     | 24.879     | 24.879     |   0.0 | 10.90
Neigh   | 7.8186     | 7.8186     | 7.8186     |   0.0 |  3.42
Comm    | 1.2357     | 1.2357     | 1.2357     |   0.0 |  0.54
Output  | 0.30856    | 0.30856    | 0.30856    |   0.0 |  0.14
Modify  | 190.81     | 190.81     | 190.81     |   0.0 | 83.58
Other   |            | 3.258      |            |       |  1.43

Nlocal:        10000.0 ave       10000 max       10000 min
Histogram: 1 0 0 0 0 0 0 0 0 0
Nghost:        433.000 ave         433 max         433 min
Histogram: 1 0 0 0 0 0 0 0 0 0
Neighs:        14936.0 ave       14936 max       14936 min
Histogram: 1 0 0 0 0 0 0 0 0 0

Total # of neighbors = 14936
Ave neighs/atom = 1.4936000
Neighbor list builds = 7635
Dangerous builds = 0
Total wall time: 0:03:48
