ITEM: TIMESTEP
0
ITEM: NUMBER OF ATOMS
10000
ITEM: BOX BOUNDS pp pp pp
-9.9000000000000000e+01 9.9000000000000000e+01
-9.9000000000000000e+01 9.9000000000000000e+01
-1.9800000000000001e+01 1.9800000000000001e+01
ITEM: ATOMS x y
-99 -99
-97.02 -99
-95.04 -99
-93.06 -99
-91.08 -99
-89.1 -99
-87.12 -99
-85.14 -99
-83.16 -99
-81.18 -99
-79.2 -99
-77.22 -99
-75.24 -99
-73.26 -99
-71.28 -99
-69.3 -99
-67.32 -99
-65.34 -99
-63.36 -99
-61.38 -99
-59.4 -99
-57.42 -99
-55.44 -99
-53.46 -99
-51.48 -99
-49.5 -99
-47.52 -99
-45.54 -99
-43.56 -99
-41.58 -99
-39.6 -99
-37.62 -99
-35.64 -99
-33.66 -99
-31.68 -99
-29.7 -99
-27.72 -99
-25.74 -99
-23.76 -99
-21.78 -99
-19.8 -99
-17.82 -99
-15.84 -99
-13.86 -99
-11.88 -99
-9.9 -99
-7.92 -99
-5.94 -99
-3.96 -99
-1.98 -99
0 -99
1.98 -99
3.96 -99
5.94 -99
7.92 -99
9.9 -99
11.88 -99
13.86 -99
15.84 -99
17.82 -99
19.8 -99
21.78 -99
23.76 -99
25.74 -99
27.72 -99
29.7 -99
31.68 -99
33.66 -99
35.64 -99
37.62 -99
39.6 -99
41.58 -99
43.56 -99
45.54 -99
47.52 -99
49.5 -99
51.48 -99
53.46 -99
55.44 -99
57.42 -99
59.4 -99
61.38 -99
63.36 -99
65.34 -99
67.32 -99
69.3 -99
71.28 -99
73.26 -99
75.24 -99
77.22 -99
79.2 -99
81.18 -99
83.16 -99
85.14 -99
87.12 -99
89.1 -99
91.08 -99
93.06 -99
95.04 -99
97.02 -99
-99 -97.02
-97.02 -97.02
-95.04 -97.02
-93.06 -97.02
-91.08 -97.02
-89.1 -97.02
-87.12 -97.02
-85.14 -97.02
-83.16 -97.02
-81.18 -97.02
-79.2 -97.02
-77.22 -97.02
-75.24 -97.02
-73.26 -97.02
-71.28 -97.02
-69.3 -97.02
-67.32 -97.02
-65.34 -97.02
-63.36 -97.02
-61.38 -97.02
-59.4 -97.02
-57.42 -97.02
-55.44 -97.02
-53.46 -97.02
-51.48 -97.02
-49.5 -97.02
-47.52 -97.02
-45.54 -97.02
-43.56 -97.02
-41.58 -97.02
-39.6 -97.02
-37.62 -97.02
-35.64 -97.02
-33.66 -97.02
-31.68 -97.02
-29.7 -97.02
-27.72 -97.02
-25.74 -97.02
-23.76 -97.02
-21.78 -97.02
-19.8 -97.02
-17.82 -97.02
-15.84 -97.02
-13.86 -97.02
-11.88 -97.02
-9.9 -97.02
-7.92 -97.02
-5.94 -97.02
-3.96 -97.02
-1.98 -97.02
0 -97.02
1.98 -97.02
3.96 -97.02
5.94 -97.02
7.92 -97.02
9.9 -97.02
11.88 -97.02
13.86 -97.02
15.84 -97.02
17.82 -97.02
19.8 -97.02
21.78 -97.02
23.76 -97.02
25.74 -97.02
27.72 -97.02
29.7 -97.02
31.68 -97.02
33.66 -97.02
35.64 -97.02
37.62 -97.02
39.6 -97.02
41.58 -97.02
43.56 -97.02
45.54 -97.02
47.52 -97.02
49.5 -97.02
51.48 -97.02
53.46 -97.02
55.44 -97.02
57.42 -97.02
59.4 -97.02
61.38 -97.02
63.36 -97.02
65.34 -97.02
67.32 -97.02
69.3 -97.02
71.28 -97.02
73.26 -97.02
75.24 -97.02
77.22 -97.02
79.2 -97.02
81.18 -97.02
83.16 -97.02
85.14 -97.02
87.12 -97.02
89.1 -97.02
91.08 -97.02
93.06 -97.02
95.04 -97.02
97.02 -97.02
-99 -95.04
-97.02 -95.04
-95.04 -95.04
-93.06 -95.04
-91.08 -95.04
-89.1 -95.04
-87.12 -95.04
-85.14 -95.04
-83.16 -95.04
-81.18 -95.04
-79.2 -95.04
-77.22 -95.04
-75.24 -95.04
-73.26 -95.04
-71.28 -95.04
-69.3 -95.04
-67.32 -95.04
-65.34 -95.04
-63.36 -95.04
-61.38 -95.04
-59.4 -95.04
-57.42 -95.04
-55.44 -95.04
-53.46 -95.04
-51.48 -95.04
-49.5 -95.04
-47.52 -95.04
-45.54 -95.04
-43.56 -95.04
-41.58 -95.04
-39.6 -95.04
-37.62 -95.04
-35.64 -95.04
-33.66 -95.04
-31.68 -95.04
-29.7 -95.04
-27.72 -95.04
-25.74 -95.04
-23.76 -95.04
-21.78 -95.04
-19.8 -95.04
-17.82 -95.04
-15.84 -95.04
-13.86 -95.04
-11.88 -95.04
-9.9 -95.04
-7.92 -95.04
-5.94 -95.04
-3.96 -95.04
-1.98 -95.04
0 -95.04
1.98 -95.04
3.96 -95.04
5.94 -95.04
7.92 -95.04
9.9 -95.04
11.88 -95.04
13.86 -95.04
15.84 -95.04
17.82 -95.04
19.8 -95.04
21.78 -95.04
23.76 -95.04
25.74 -95.04
27.72 -95.04
29.7 -95.04
31.68 -95.04
33.66 -95.04
35.64 -95.04
37.62 -95.04
39.6 -95.04
41.58 -95.04
43.56 -95.04
45.54 -95.04
47.52 -95.04
49.5 -95.04
51.48 -95.04
53.46 -95.04
55.44 -95.04
57.42 -95.04
59.4 -95.04
61.38 -95.04
63.36 -95.04
65.34 -95.04
67.32 -95.04
69.3 -95.04
71.28 -95.04
73.26 -95.04
75.24 -95.04
77.22 -95.04
79.2 -95.04
81.18 -95.04
83.16 -95.04
85.14 -95.04
87.12 -95.04
89.1 -95.04
91.08 -95.04
93.06 -95.04
95.04 -95.04
97.02 -95.04
-99 -93.06
-97.02 -93.06
-95.04 -93.06
-93.06 -93.06
-91.08 -93.06
-89.1 -93.06
-87.12 -93.06
-85.14 -93.06
-83.16 -93.06
-81.18 -93.06
-79.2 -93.06
-77.22 -93.06
-75.24 -93.06
-73.26 -93.06
-71.28 -93.06
-69.3 -93.06
-67.32 -93.06
-65.34 -93.06
-63.36 -93.06
-61.38 -93.06
-59.4 -93.06
-57.42 -93.06
-55.44 -93.06
-53.46 -93.06
-51.48 -93.06
-49.5 -93.06
-47.52 -93.06
-45.54 -93.06
-43.56 -93.06
-41.58 -93.06
-39.6 -93.06
-37.62 -93.06
-35.64 -93.06
-33.66 -93.06
-31.68 -93.06
-29.7 -93.06
-27.72 -93.06
-25.74 -93.06
-23.76 -93.06
-21.78 -93.06
-19.8 -93.06
-17.82 -93.06
-15.84 -93.06
-13.86 -93.06
-11.88 -93.06
-9.9 -93.06
-7.92 -93.06
-5.94 -93.06
-3.96 -93.06
-1.98 -93.06
0 -93.06
1.98 -93.06
3.96 -93.06
5.94 -93.06
7.92 -93.06
9.9 -93.06
11.88 -93.06
13.86 -93.06
15.84 -93.06
17.82 -93.06
19.8 -93.06
21.78 -93.06
23.76 -93.06
25.74 -93.06
27.72 -93.06
29.7 -93.06
31.68 -93.06
33.66 -93.06
35.64 -93.06
37.62 -93.06
39.6 -93.06
41.58 -93.06
43.56 -93.06
45.54 -93.06
47.52 -93.06
49.5 -93.06
51.48 -93.06
53.46 -93.06
55.44 -93.06
57.42 -93.06
59.4 -93.06
61.38 -93.06
63.36 -93.06
65.34 -93.06
67.32 -93.06
69.3 -93.06
71.28 -93.06
73.26 -93.06
75.24 -93.06
77.22 -93.06
79.2 -93.06
81.18 -93.06
83.16 -93.06
85.14 -93.06
87.12 -93.06
89.1 -93.06
91.08 -93.06
93.06 -93.06
95.04 -93.06
97.02 -93.06
-99 -91.08
-97.02 -91.08
-95.04 -91.08
-93.06 -91.08
-91.08 -91.08
-89.1 -91.08
-87.12 -91.08
-85.14 -91.08
-83.16 -91.08
-81.18 -91.08
-79.2 -91.08
-77.22 -91.08
-75.24 -91.08
-73.26 -91.08
-71.28 -91.08
-69.3 -91.08
-67.32 -91.08
-65.34 -91.08
-63.36 -91.08
-61.38 -91.08
-59.4 -91.08
-57.42 -91.08
-55.44 -91.08
-53.46 -91.08
-51.48 -91.08
-49.5 -91.08
-47.52 -91.08
-45.54 -91.08
-43.56 -91.08
-41.58 -91.08
-39.6 -91.08
-37.62 -91.08
-35.64 -91.08
-33.66 -91.08
-31.68 -91.08
-29.7 -91.08
-27.72 -91.08
-25.74 -91.08
-23.76 -91.08
-21.78 -91.08
-19.8 -91.08
-17.82 -91.08
-15.84 -91.08
-13.86 -91.08
-11.88 -91.08
-9.9 -91.08
-7.92 -91.08
-5.94 -91.08
-3.96 -91.08
-1.98 -91.08
0 -91.08
1.98 -91.08
3.96 -91.08
5.94 -91.08
7.92 -91.08
9.9 -91.08
11.88 -91.08
13.86 -91.08
15.84 -91.08
17.82 -91.08
19.8 -91.08
21.78 -91.08
23.76 -91.08
25.74 -91.08
27.72 -91.08
29.7 -91.08
31.68 -91.08
33.66 -91.08
35.64 -91.08
37.62 -91.08
39.6 -91.08
41.58 -91.08
43.56 -91.08
45.54 -91.08
47.52 -91.08
49.5 -91.08
51.48 -91.08
53.46 -91.08
55.44 -91.08
57.42 -91.08
59.4 -91.08
61.38 -91.08
63.36 -91.08
65.34 -91.08
67.32 -91.08
69.3 -91.08
71.28 -91.08
73.26 -91.08
75.24 -91.08
77.22 -91.08
79.2 -91.08
81.18 -91.08
83.16 -91.08
85.14 -91.08
87.12 -91.08
89.1 -91.08
91.08 -91.08
93.06 -91.08
95.04 -91.08
97.02 -91.08
-99 -89.1
-97.02 -89.1
-95.04 -89.1
-93.06 -89.1
-91.08 -89.1
-89.1 -89.1
-87.12 -89.1
-85.14 -89.1
-83.16 -89.1
-81.18 -89.1
-79.2 -89.1
-77.22 -89.1
-75.24 -89.1
-73.26 -89.1
-71.28 -89.1
-69.3 -89.1
-67.32 -89.1
-65.34 -89.1
-63.36 -89.1
-61.38 -89.1
-59.4 -89.1
-57.42 -89.1
-55.44 -89.1
-53.46 -89.1
-51.48 -89.1
-49.5 -89.1
-47.52 -89.1
-45.54 -89.1
-43.56 -89.1
-41.58 -89.1
-39.6 -89.1
-37.62 -89.1
-35.64 -89.1
-33.66 -89.1
-31.68 -89.1
-29.7 -89.1
-27.72 -89.1
-25.74 -89.1
-23.76 -89.1
-21.78 -89.1
-19.8 -89.1
-17.82 -89.1
-15.84 -89.1
-13.86 -89.1
-11.88 -89.1
-9.9 -89.1
-7.92 -89.1
-5.94 -89.1
-3.96 -89.1
-1.98 -89.1
0 -89.1
1.98 -89.1
3.96 -89.1
5.94 -89.1
7.92 -89.1
9.9 -89.1
11.88 -89.1
13.86 -89.1
15.84 -89.1
17.82 -89.1
19.8 -89.1
21.78 -89.1
23.76 -89.1
25.74 -89.1
27.72 -89.1
29.7 -89.1
31.68 -89.1
33.66 -89.1
35.64 -89.1
37.62 -89.1
39.6 -89.1
41.58 -89.1
43.56 -89.1
45.54 -89.1
47.52 -89.1
49.5 -89.1
51.48 -89.1
53.46 -89.1
55.44 -89.1
57.42 -89.1
59.4 -89.1
61.38 -89.1
63.36 -89.1
65.34 -89.1
67.32 -89.1
69.3 -89.1
71.28 -89.1
73.26 -89.1
75.24 -89.1
77.22 -89.1
79.2 -89.1
81.18 -89.1
83.16 -89.1
85.14 -89.1
87.12 -89.1
89.1 -89.1
91.08 -89.1
93.06 -89.1
95.04 -89.1
97.02 -89.1
-99 -87.12
-97.02 -87.12
-95.04 -87.12
-93.06 -87.12
-91.08 -87.12
-89.1 -87.12
-87.12 -87.12
-85.14 -87.12
-83.16 -87.12
-81.18 -87.12
-79.2 -87.12
-77.22 -87.12
-75.24 -87.12
-73.26 -87.12
-71.28 -87.12
-69.3 -87.12
-67.32 -87.12
-65.34 -87.12
-63.36 -87.12
-61.38 -87.12
-59.4 -87.12
-57.42 -87.12
-55.44 -87.12
-53.46 -87.12
-51.48 -87.12
-49.5 -87.12
-47.52 -87.12
-45.54 -87.12
-43.56 -87.12
-41.58 -87.12
-39.6 -87.12
-37.62 -87.12
-35.64 -87.12
-33.66 -87.12
-31.68 -87.12
-29.7 -87.12
-27.72 -87.12
-25.74 -87.12
-23.76 -87.12
-21.78 -87.12
-19.8 -87.12
-17.82 -87.12
-15.84 -87.12
-13.86 -87.12
-11.88 -87.12
-9.9 -87.12
-7.92 -87.12
-5.94 -87.12
-3.96 -87.12
-1.98 -87.12
0 -87.12
1.98 -87.12
3.96 -87.12
5.94 -87.12
7.92 -87.12
9.9 -87.12
11.88 -87.12
13.86 -87.12
15.84 -87.12
17.82 -87.12
19.8 -87.12
21.78 -87.12
23.76 -87.12
25.74 -87.12
27.72 -87.12
29.7 -87.12
31.68 -87.12
33.66 -87.12
35.64 -87.12
37.62 -87.12
39.6 -87.12
41.58 -87.12
43.56 -87.12
45.54 -87.12
47.52 -87.12
49.5 -87.12
51.48 -87.12
53.46 -87.12
55.44 -87.12
57.42 -87.12
59.4 -87.12
61.38 -87.12
63.36 -87.12
65.34 -87.12
67.32 -87.12
69.3 -87.12
71.28 -87.12
73.26 -87.12
75.24 -87.12
77.22 -87.12
79.2 -87.12
81.18 -87.12
83.16 -87.12
85.14 -87.12
87.12 -87.12
89.1 -87.12
91.08 -87.12
93.06 -87.12
95.04 -87.12
97.02 -87.12
-99 -85.14
-97.02 -85.14
-95.04 -85.14
-93.06 -85.14
-91.08 -85.14
-89.1 -85.14
-87.12 -85.14
-85.14 -85.14
-83.16 -85.14
-81.18 -85.14
-79.2 -85.14
-77.22 -85.14
-75.24 -85.14
-73.26 -85.14
-71.28 -85.14
-69.3 -85.14
-67.32 -85.14
-65.34 -85.14
-63.36 -85.14
-61.38 -85.14
-59.4 -85.14
-57.42 -85.14
-55.44 -85.14
-53.46 -85.14
-51.48 -85.14
-49.5 -85.14
-47.52 -85.14
-45.54 -85.14
-43.56 -85.14
-41.58 -85.14
-39.6 -85.14
-37.62 -85.14
-35.64 -85.14
-33.66 -85.14
-31.68 -85.14
-29.7 -85.14
-27.72 -85.14
-25.74 -85.14
-23.76 -85.14
-21.78 -85.14
-19.8 -85.14
-17.82 -85.14
-15.84 -85.14
-13.86 -85.14
-11.88 -85.14
-9.9 -85.14
-7.92 -85.14
-5.94 -85.14
-3.96 -85.14
-1.98 -85.14
0 -85.14
1.98 -85.14
3.96 -85.14
5.94 -85.14
7.92 -85.14
9.9 -85.14
11.88 -85.14
13.86 -85.14
15.84 -85.14
17.82 -85.14
19.8 -85.14
21.78 -85.14
23.76 -85.14
25.74 -85.14
27.72 -85.14
29.7 -85.14
31.68 -85.14
33.66 -85.14
35.64 -85.14
37.62 -85.14
39.6 -85.14
41.58 -85.14
43.56 -85.14
45.54 -85.14
47.52 -85.14
49.5 -85.14
51.48 -85.14
53.46 -85.14
55.44 -85.14
57.42 -85.14
59.4 -85.14
61.38 -85.14
63.36 -85.14
65.34 -85.14
67.32 -85.14
69.3 -85.14
71.28 -85.14
73.26 -85.14
75.24 -85.14
77.22 -85.14
79.2 -85.14
81.18 -85.14
83.16 -85.14
85.14 -85.14
87.12 -85.14
89.1 -85.14
91.08 -85.14
93.06 -85.14
95.04 -85.14
97.02 -85.14
-99 -83.16
-97.02 -83.16
-95.04 -83.16
-93.06 -83.16
-91.08 -83.16
-89.1 -83.16
-87.12 -83.16
-85.14 -83.16
-83.16 -83.16
-81.18 -83.16
-79.2 -83.16
-77.22 -83.16
-75.24 -83.16
-73.26 -83.16
-71.28 -83.16
-69.3 -83.16
-67.32 -83.16
-65.34 -83.16
-63.36 -83.16
-61.38 -83.16
-59.4 -83.16
-57.42 -83.16
-55.44 -83.16
-53.46 -83.16
-51.48 -83.16
-49.5 -83.16
-47.52 -83.16
-45.54 -83.16
-43.56 -83.16
-41.58 -83.16
-39.6 -83.16
-37.62 -83.16
-35.64 -83.16
-33.66 -83.16
-31.68 -83.16
-29.7 -83.16
-27.72 -83.16
-25.74 -83.16
-23.76 -83.16
-21.78 -83.16
-19.8 -83.16
-17.82 -83.16
-15.84 -83.16
-13.86 -83.16
-11.88 -83.16
-9.9 -83.16
-7.92 -83.16
-5.94 -83.16
-3.96 -83.16
-1.98 -83.16
0 -83.16
1.98 -83.16
3.96 -83.16
5.94 -83.16
7.92 -83.16
9.9 -83.16
11.88 -83.16
13.86 -83.16
15.84 -83.16
17.82 -83.16
19.8 -83.16
21.78 -83.16
23.76 -83.16
25.74 -83.16
27.72 -83.16
29.7 -83.16
31.68 -83.16
33.66 -83.16
35.64 -83.16
37.62 -83.16
39.6 -83.16
41.58 -83.16
43.56 -83.16
45.54 -83.16
47.52 -83.16
49.5 -83.16
51.48 -83.16
53.46 -83.16
55.44 -83.16
57.42 -83.16
59.4 -83.16
61.38 -83.16
63.36 -83.16
65.34 -83.16
67.32 -83.16
69.3 -83.16
71.28 -83.16
73.26 -83.16
75.24 -83.16
77.22 -83.16
79.2 -83.16
81.18 -83.16
83.16 -83.16
85.14 -83.16
87.12 -83.16
89.1 -83.16
91.08 -83.16
93.06 -83.16
95.04 -83.16
97.02 -83.16
-99 -81.18
-97.02 -81.18
-95.04 -81.18
-93.06 -81.18
-91.08 -81.18
-89.1 -81.18
-87.12 -81.18
-85.14 -81.18
-83.16 -81.18
-81.18 -81.18
-79.2 -81.18
-77.22 -81.18
-75.24 -81.18
-73.26 -81.18
-71.28 -81.18
-69.3 -81.18
-67.32 -81.18
-65.34 -81.18
-63.36 -81.18
-61.38 -81.18
-59.4 -81.18
-57.42 -81.18
-55.44 -81.18
-53.46 -81.18
-51.48 -81.18
-49.5 -81.18
-47.52 -81.18
-45.54 -81.18
-43.56 -81.18
-41.58 -81.18
-39.6 -81.18
-37.62 -81.18
-35.64 -81.18
-33.66 -81.18
-31.68 -81.18
-29.7 -81.18
-27.72 -81.18
-25.74 -81.18
-23.76 -81.18
-21.78 -81.18
-19.8 -81.18
-17.82 -81.18
-15.84 -81.18
-13.86 -81.18
-11.88 -81.18
-9.9 -81.18
-7.92 -81.18
-5.94 -81.18
-3.96 -81.18
-1.98 -81.18
0 -81.18
1.98 -81.18
3.96 -81.18
5.94 -81.18
7.92 -81.18
9.9 -81.18
11.88 -81.18
13.86 -81.18
15.84 -81.18
17.82 -81.18
19.8 -81.18
21.78 -81.18
23.76 -81.18
25.74 -81.18
27.72 -81.18
29.7 -81.18
31.68 -81.18
33.66 -81.18
35.64 -81.18
37.62 -81.18
39.6 -81.18
41.58 -81.18
43.56 -81.18
45.54 -81.18
47.52 -81.18
49.5 -81.18
51.48 -81.18
53.46 -81.18
55.44 -81.18
57.42 -81.18
59.4 -81.18
61.38 -81.18
63.36 -81.18
65.34 -81.18
67.32 -81.18
69.3 -81.18
71.28 -81.18
73.26 -81.18
75.24 -81.18
77.22 -81.18
79.2 -81.18
81.18 -81.18
83.16 -81.18
85.14 -81.18
87.12 -81.18
89.1 -81.18
91.08 -81.18
93.06 -81.18
95.04 -81.18
97.02 -81.18
-99 -79.2
-97.02 -79.2
-95.04 -79.2
-93.06 -79.2
-91.08 -79.2
-89.1 -79.2
-87.12 -79.2
-85.14 -79.2
-83.16 -79.2
-81.18 -79.2
-79.2 -79.2
-77.22 -79.2
-75.24 -79.2
-73.26 -79.2
-71.28 -79.2
-69.3 -79.2
-67.32 -79.2
-65.34 -79.2
-63.36 -79.2
-61.38 -79.2
-59.4 -79.2
-57.42 -79.2
-55.44 -79.2
-53.46 -79.2
-51.48 -79.2
-49.5 -79.2
-47.52 -79.2
-45.54 -79.2
-43.56 -79.2
-41.58 -79.2
-39.6 -79.2
-37.62 -79.2
-35.64 -79.2
-33.66 -79.2
-31.68 -79.2
-29.7 -79.2
-27.72 -79.2
-25.74 -79.2
-23.76 -79.2
-21.78 -79.2
-19.8 -79.2
-17.82 -79.2
-15.84 -79.2
-13.86 -79.2
-11.88 -79.2
-9.9 -79.2
-7.92 -79.2
-5.94 -79.2
-3.96 -79.2
-1.98 -79.2
0 -79.2
1.98 -79.2
3.96 -79.2
5.94 -79.2
7.92 -79.2
9.9 -79.2
11.88 -79.2
13.86 -79.2
15.84 -79.2
17.82 -79.2
19.8 -79.2
21.78 -79.2
23.76 -79.2
25.74 -79.2
27.72 -79.2
29.7 -79.2
31.68 -79.2
33.66 -79.2
35.64 -79.2
37.62 -79.2
39.6 -79.2
41.58 -79.2
43.56 -79.2
45.54 -79.2
47.52 -79.2
49.5 -79.2
51.48 -79.2
53.46 -79.2
55.44 -79.2
57.42 -79.2
59.4 -79.2
61.38 -79.2
63.36 -79.2
65.34 -79.2
67.32 -79.2
69.3 -79.2
71.28 -79.2
73.26 -79.2
75.24 -79.2
77.22 -79.2
79.2 -79.2
81.18 -79.2
83.16 -79.2
85.14 -79.2
87.12 -79.2
89.1 -79.2
91.08 -79.2
93.06 -79.2
95.04 -79.2
97.02 -79.2
-99 -77.22
-97.02 -77.22
-95.04 -77.22
-93.06 -77.22
-91.08 -77.22
-89.1 -77.22
-87.12 -77.22
-85.14 -77.22
-83.16 -77.22
-81.18 -77.22
-79.2 -77.22
-77.22 -77.22
-75.24 -77.22
-73.26 -77.22
-71.28 -77.22
-69.3 -77.22
-67.32 -77.22
-65.34 -77.22
-63.36 -77.22
-61.38 -77.22
-59.4 -77.22
-57.42 -77.22
-55.44 -77.22
-53.46 -77.22
-51.48 -77.22
-49.5 -77.22
-47.52 -77.22
-45.54 -77.22
-43.56 -77.22
-41.58 -77.22
-39.6 -77.22
-37.62 -77.22
-35.64 -77.22
-33.66 -77.22
-31.68 -77.22
-29.7 -77.22
-27.72 -77.22
-25.74 -77.22
-23.76 -77.22
-21.78 -77.22
-19.8 -77.22
-17.82 -77.22
-15.84 -77.22
-13.86 -77.22
-11.88 -77.22
-9.9 -77.22
-7.92 -77.22
-5.94 -77.22
-3.96 -77.22
-1.98 -77.22
0 -77.22
1.98 -77.22
3.96 -77.22
5.94 -77.22
7.92 -77.22
9.9 -77.22
11.88 -77.22
13.86 -77.22
15.84 -77.22
17.82 -77.22
19.8 -77.22
21.78 -77.22
23.76 -77.22
25.74 -77.22
27.72 -77.22
29.7 -77.22
31.68 -77.22
33.66 -77.22
35.64 -77.22
37.62 -77.22
39.6 -77.22
41.58 -77.22
43.56 -77.22
45.54 -77.22
47.52 -77.22
49.5 -77.22
51.48 -77.22
53.46 -77.22
55.44 -77.22
57.42 -77.22
59.4 -77.22
61.38 -77.22
63.36 -77.22
65.34 -77.22
67.32 -77.22
69.3 -77.22
71.28 -77.22
73.26 -77.22
75.24 -77.22
77.22 -77.22
79.2 -77.22
81.18 -77.22
83.16 -77.22
85.14 -77.22
87.12 -77.22
89.1 -77.22
91.08 -77.22
93.06 -77.22
95.04 -77.22
97.02 -77.22
-99 -75.24
-97.02 -75.24
-95.04 -75.24
-93.06 -75.24
-91.08 -75.24
-89.1 -75.24
-87.12 -75.24
-85.14 -75.24
-83.16 -75.24
-81.18 -75.24
-79.2 -75.24
-77.22 -75.24
-75.24 -75.24
-73.26 -75.24
-71.28 -75.24
-69.3 -75.24
-67.32 -75.24
-65.34 -75.24
-63.36 -75.24
-61.38 -75.24
-59.4 -75.24
-57.42 -75.24
-55.44 -75.24
-53.46 -75.24
-51.48 -75.24
-49.5 -75.24
-47.52 -75.24
-45.54 -75.24
-43.56 -75.24
-41.58 -75.24
-39.6 -75.24
-37.62 -75.24
-35.64 -75.24
-33.66 -75.24
-31.68 -75.24
-29.7 -75.24
-27.72 -75.24
-25.74 -75.24
-23.76 -75.24
-21.78 -75.24
-19.8 -75.24
-17.82 -75.24
-15.84 -75.24
-13.86 -75.24
-11.88 -75.24
-9.9 -75.24
-7.92 -75.24
-5.94 -75.24
-3.96 -75.24
-1.98 -75.24
0 -75.24
1.98 -75.24
3.96 -75.24
5.94 -75.24
7.92 -75.24
9.9 -75.24
11.88 -75.24
13.86 -75.24
15.84 -75.24
17.82 -75.24
19.8 -75.24
21.78 -75.24
23.76 -75.24
25.74 -75.24
27.72 -75.24
29.7 -75.24
31.68 -75.24
33.66 -75.24
35.64 -75.24
37.62 -75.24
39.6 -75.24
41.58 -75.24
43.56 -75.24
45.54 -75.24
47.52 -75.24
49.5 -75.24
51.48 -75.24
53.46 -75.24
55.44 -75.24
57.42 -75.24
59.4 -75.24
61.38 -75.24
63.36 -75.24
65.34 -75.24
67.32 -75.24
69.3 -75.24
71.28 -75.24
73.26 -75.24
75.24 -75.24
77.22 -75.24
79.2 -75.24
81.18 -75.24
83.16 -75.24
85.14 -75.24
87.12 -75.24
89.1 -75.24
91.08 -75.24
93.06 -75.24
95.04 -75.24
97.02 -75.24
-99 -73.26
-97.02 -73.26
-95.04 -73.26
-93.06 -73.26
-91.08 -73.26
-89.1 -73.26
-87.12 -73.26
-85.14 -73.26
-83.16 -73.26
-81.18 -73.26
-79.2 -73.26
-77.22 -73.26
-75.24 -73.26
-73.26 -73.26
-71.28 -73.26
-69.3 -73.26
-67.32 -73.26
-65.34 -73.26
-63.36 -73.26
-61.38 -73.26
-59.4 -73.26
-57.42 -73.26
-55.44 -73.26
-53.46 -73.26
-51.48 -73.26
-49.5 -73.26
-47.52 -73.26
-45.54 -73.26
-43.56 -73.26
-41.58 -73.26
-39.6 -73.26
-37.62 -73.26
-35.64 -73.26
-33.66 -73.26
-31.68 -73.26
-29.7 -73.26
-27.72 -73.26
-25.74 -73.26
-23.76 -73.26
-21.78 -73.26
-19.8 -73.26
-17.82 -73.26
-15.84 -73.26
-13.86 -73.26
-11.88 -73.26
-9.9 -73.26
-7.92 -73.26
-5.94 -73.26
-3.96 -73.26
-1.98 -73.26
0 -73.26
1.98 -73.26
3.96 -73.26
5.94 -73.26
7.92 -73.26
9.9 -73.26
11.88 -73.26
13.86 -73.26
15.84 -73.26
17.82 -73.26
19.8 -73.26
21.78 -73.26
23.76 -73.26
25.74 -73.26
27.72 -73.26
29.7 -73.26
31.68 -73.26
33.66 -73.26
35.64 -73.26
37.62 -73.26
39.6 -73.26
41.58 -73.26
43.56 -73.26
45.54 -73.26
47.52 -73.26
49.5 -73.26
51.48 -73.26
53.46 -73.26
55.44 -73.26
57.42 -73.26
59.4 -73.26
61.38 -73.26
63.36 -73.26
65.34 -73.26
67.32 -73.26
69.3 -73.26
71.28 -73.26
73.26 -73.26
75.24 -73.26
77.22 -73.26
79.2 -73.26
81.18 -73.26
83.16 -73.26
85.14 -73.26
87.12 -73.26
89.1 -73.26
91.08 -73.26
93.06 -73.26
95.04 -73.26
97.02 -73.26
-99 -71.28
-97.02 -71.28
-95.04 -71.28
-93.06 -71.28
-91.08 -71.28
-89.1 -71.28
-87.12 -71.28
-85.14 -71.28
-83.16 -71.28
-81.18 -71.28
-79.2 -71.28
-77.22 -71.28
-75.24 -71.28
-73.26 -71.28
-71.28 -71.28
-69.3 -71.28
-67.32 -71.28
-65.34 -71.28
-63.36 -71.28
-61.38 -71.28
-59.4 -71.28
-57.42 -71.28
-55.44 -71.28
-53.46 -71.28
-51.48 -71.28
-49.5 -71.28
-47.52 -71.28
-45.54 -71.28
-43.56 -71.28
-41.58 -71.28
-39.6 -71.28
-37.62 -71.28
-35.64 -71.28
-33.66 -71.28
-31.68 -71.28
-29.7 -71.28
-27.72 -71.28
-25.74 -71.28
-23.76 -71.28
-21.78 -71.28
-19.8 -71.28
-17.82 -71.28
-15.84 -71.28
-13.86 -71.28
-11.88 -71.28
-9.9 -71.28
-7.92 -71.28
-5.94 -71.28
-3.96 -71.28
-1.98 -71.28
0 -71.28
1.98 -71.28
3.96 -71.28
5.94 -71.28
7.92 -71.28
9.9 -71.28
11.88 -71.28
13.86 -71.28
15.84 -71.28
17.82 -71.28
19.8 -71.28
21.78 -71.28
23.76 -71.28
25.74 -71.28
27.72 -71.28
29.7 -71.28
31.68 -71.28
33.66 -71.28
35.64 -71.28
37.62 -71.28
39.6 -71.28
41.58 -71.28
43.56 -71.28
45.54 -71.28
47.52 -71.28
49.5 -71.28
51.48 -71.28
53.46 -71.28
55.44 -71.28
57.42 -71.28
59.4 -71.28
61.38 -71.28
63.36 -71.28
65.34 -71.28
67.32 -71.28
69.3 -71.28
71.28 -71.28
73.26 -71.28
75.24 -71.28
77.22 -71.28
79.2 -71.28
81.18 -71.28
83.16 -71.28
85.14 -71.28
87.12 -71.28
89.1 -71.28
91.08 -71.28
93.06 -71.28
95.04 -71.28
97.02 -71.28
-99 -69.3
-97.02 -69.3
-95.04 -69.3
-93.06 -69.3
-91.08 -69.3
-89.1 -69.3
-87.12 -69.3
-85.14 -69.3
-83.16 -69.3
-81.18 -69.3
-79.2 -69.3
-77.22 -69.3
-75.24 -69.3
-73.26 -69.3
-71.28 -69.3
-69.3 -69.3
-67.32 -69.3
-65.34 -69.3
-63.36 -69.3
-61.38 -69.3
-59.4 -69.3
-57.42 -69.3
-55.44 -69.3
-53.46 -69.3
-51.48 -69.3
-49.5 -69.3
-47.52 -69.3
-45.54 -69.3
-43.56 -69.3
-41.58 -69.3
-39.6 -69.3
-37.62 -69.3
-35.64 -69.3
-33.66 -69.3
-31.68 -69.3
-29.7 -69.3
-27.72 -69.3
-25.74 -69.3
-23.76 -69.3
-21.78 -69.3
-19.8 -69.3
-17.82 -69.3
-15.84 -69.3
-13.86 -69.3
-11.88 -69.3
-9.9 -69.3
-7.92 -69.3
-5.94 -69.3
-3.96 -69.3
-1.98 -69.3
0 -69.3
1.98 -69.3
3.96 -69.3
5.94 -69.3
7.92 -69.3
9.9 -69.3
11.88 -69.3
13.86 -69.3
15.84 -69.3
17.82 -69.3
19.8 -69.3
21.78 -69.3
23.76 -69.3
25.74 -69.3
27.72 -69.3
29.7 -69.3
31.68 -69.3
33.66 -69.3
35.64 -69.3
37.62 -69.3
39.6 -69.3
41.58 -69.3
43.56 -69.3
45.54 -69.3
47.52 -69.3
49.5 -69.3
51.48 -69.3
53.46 -69.3
55.44 -69.3
57.42 -69.3
59.4 -69.3
61.38 -69.3
63.36 -69.3
65.34 -69.3
67.32 -69.3
69.3 -69.3
71.28 -69.3
73.26 -69.3
75.24 -69.3
77.22 -69.3
79.2 -69.3
81.18 -69.3
83.16 -69.3
85.14 -69.3
87.12 -69.3
89.1 -69.3
91.08 -69.3
93.06 -69.3
95.04 -69.3
97.02 -69.3
-99 -67.32
-97.02 -67.32
-95.04 -67.32
-93.06 -67.32
-91.08 -67.32
-89.1 -67.32
-87.12 -67.32
-85.14 -67.32
-83.16 -67.32
-81.18 -67.32
-79.2 -67.32
-77.22 -67.32
-75.24 -67.32
-73.26 -67.32
-71.28 -67.32
-69.3 -67.32
-67.32 -67.32
-65.34 -67.32
-63.36 -67.32
-61.38 -67.32
-59.4 -67.32
-57.42 -67.32
-55.44 -67.32
-53.46 -67.32
-51.48 -67.32
-49.5 -67.32
-47.52 -67.32
-45.54 -67.32
-43.56 -67.32
-41.58 -67.32
-39.6 -67.32
-37.62 -67.32
-35.64 -67.32
-33.66 -67.32
-31.68 -67.32
-29.7 -67.32
-27.72 -67.32
-25.74 -67.32
-23.76 -67.32
-21.78 -67.32
-19.8 -67.32
-17.82 -67.32
-15.84 -67.32
-13.86 -67.32
-11.88 -67.32
-9.9 -67.32
-7.92 -67.32
-5.94 -67.32
-3.96 -67.32
-1.98 -67.32
0 -67.32
1.98 -67.32
3.96 -67.32
5.94 -67.32
7.92 -67.32
9.9 -67.32
11.88 -67.32
13.86 -67.32
15.84 -67.32
17.82 -67.32
19.8 -67.32
21.78 -67.32
23.76 -67.32
25.74 -67.32
27.72 -67.32
29.7 -67.32
31.68 -67.32
33.66 -67.32
35.64 -67.32
37.62 -67.32
39.6 -67.32
41.58 -67.32
43.56 -67.32
45.54 -67.32
47.52 -67.32
49.5 -67.32
51.48 -67.32
53.46 -67.32
55.44 -67.32
57.42 -67.32
59.4 -67.32
61.38 -67.32
63.36 -67.32
65.34 -67.32
67.32 -67.32
69.3 -67.32
71.28 -67.32
73.26 -67.32
75.24 -67.32
77.22 -67.32
79.2 -67.32
81.18 -67.32
83.16 -67.32
85.14 -67.32
87.12 -67.32
89.1 -67.32
91.08 -67.32
93.06 -67.32
95.04 -67.32
97.02 -67.32
-99 -65.34
-97.02 -65.34
-95.04 -65.34
-93.06 -65.34
-91.08 -65.34
-89.1 -65.34
-87.12 -65.34
-85.14 -65.34
-83.16 -65.34
-81.18 -65.34
-79.2 -65.34
-77.22 -65.34
-75.24 -65.34
-73.26 -65.34
-71.28 -65.34
-69.3 -65.34
-67.32 -65.34
-65.34 -65.34
-63.36 -65.34
-61.38 -65.34
-59.4 -65.34
-57.42 -65.34
-55.44 -65.34
-53.46 -65.34
-51.48 -65.34
-49.5 -65.34
-47.52 -65.34
-45.54 -65.34
-43.56 -65.34
-41.58 -65.34
-39.6 -65.34
-37.62 -65.34
-35.64 -65.34
-33.66 -65.34
-31.68 -65.34
-29.7 -65.34
-27.72 -65.34
-25.74 -65.34
-23.76 -65.34
-21.78 -65.34
-19.8 -65.34
-17.82 -65.34
-15.84 -65.34
-13.86 -65.34
-11.88 -65.34
-9.9 -65.34
-7.92 -65.34
-5.94 -65.34
-3.96 -65.34
-1.98 -65.34
0 -65.34
1.98 -65.34
3.96 -65.34
5.94 -65.34
7.92 -65.34
9.9 -65.34
11.88 -65.34
13.86 -65.34
15.84 -65.34
17.82 -65.34
19.8 -65.34
21.78 -65.34
23.76 -65.34
25.74 -65.34
27.72 -65.34
29.7 -65.34
31.68 -65.34
33.66 -65.34
35.64 -65.34
37.62 -65.34
39.6 -65.34
41.58 -65.34
43.56 -65.34
45.54 -65.34
47.52 -65.34
49.5 -65.34
51.48 -65.34
53.46 -65.34
55.44 -65.34
57.42 -65.34
59.4 -65.34
61.38 -65.34
63.36 -65.34
65.34 -65.34
67.32 -65.34
69.3 -65.34
71.28 -65.34
73.26 -65.34
75.24 -65.34
77.22 -65.34
79.2 -65.34
81.18 -65.34
83.16 -65.34
85.14 -65.34
87.12 -65.34
89.1 -65.34
91.08 -65.34
93.06 -65.34
95.04 -65.34
97.02 -65.34
-99 -63.36
-97.02 -63.36
-95.04 -63.36
-93.06 -63.36
-91.08 -63.36
-89.1 -63.36
-87.12 -63.36
-85.14 -63.36
-83.16 -63.36
-81.18 -63.36
-79.2 -63.36
-77.22 -63.36
-75.24 -63.36
-73.26 -63.36
-71.28 -63.36
-69.3 -63.36
-67.32 -63.36
-65.34 -63.36
-63.36 -63.36
-61.38 -63.36
-59.4 -63.36
-57.42 -63.36
-55.44 -63.36
-53.46 -63.36
-51.48 -63.36
-49.5 -63.36
-47.52 -63.36
-45.54 -63.36
-43.56 -63.36
-41.58 -63.36
-39.6 -63.36
-37.62 -63.36
-35.64 -63.36
-33.66 -63.36
-31.68 -63.36
-29.7 -63.36
-27.72 -63.36
-25.74 -63.36
-23.76 -63.36
-21.78 -63.36
-19.8 -63.36
-17.82 -63.36
-15.84 -63.36
-13.86 -63.36
-11.88 -63.36
-9.9 -63.36
-7.92 -63.36
-5.94 -63.36
-3.96 -63.36
-1.98 -63.36
0 -63.36
1.98 -63.36
3.96 -63.36
5.94 -63.36
7.92 -63.36
9.9 -63.36
11.88 -63.36
13.86 -63.36
15.84 -63.36
17.82 -63.36
19.8 -63.36
21.78 -63.36
23.76 -63.36
25.74 -63.36
27.72 -63.36
29.7 -63.36
31.68 -63.36
33.66 -63.36
35.64 -63.36
37.62 -63.36
39.6 -63.36
41.58 -63.36
43.56 -63.36
45.54 -63.36
47.52 -63.36
49.5 -63.36
51.48 -63.36
53.46 -63.36
55.44 -63.36
57.42 -63.36
59.4 -63.36
61.38 -63.36
63.36 -63.36
65.34 -63.36
67.32 -63.36
69.3 -63.36
71.28 -63.36
73.26 -63.36
75.24 -63.36
77.22 -63.36
79.2 -63.36
81.18 -63.36
83.16 -63.36
85.14 -63.36
87.12 -63.36
89.1 -63.36
91.08 -63.36
93.06 -63.36
95.04 -63.36
97.02 -63.36
-99 -61.38
-97.02 -61.38
-95.04 -61.38
-93.06 -61.38
-91.08 -61.38
-89.1 -61.38
-87.12 -61.38
-85.14 -61.38
-83.16 -61.38
-81.18 -61.38
-79.2 -61.38
-77.22 -61.38
-75.24 -61.38
-73.26 -61.38
-71.28 -61.38
-69.3 -61.38
-67.32 -61.38
-65.34 -61.38
-63.36 -61.38
-61.38 -61.38
-59.4 -61.38
-57.42 -61.38
-55.44 -61.38
-53.46 -61.38
-51.48 -61.38
-49.5 -61.38
-47.52 -61.38
-45.54 -61.38
-43.56 -61.38
-41.58 -61.38
-39.6 -61.38
-37.62 -61.38
-35.64 -61.38
-33.66 -61.38
-31.68 -61.38
-29.7 -61.38
-27.72 -61.38
-25.74 -61.38
-23.76 -61.38
-21.78 -61.38
-19.8 -61.38
-17.82 -61.38
-15.84 -61.38
-13.86 -61.38
-11.88 -61.38
-9.9 -61.38
-7.92 -61.38
-5.94 -61.38
-3.96 -61.38
-1.98 -61.38
0 -61.38
1.98 -61.38
3.96 -61.38
5.94 -61.38
7.92 -61.38
9.9 -61.38
11.88 -61.38
13.86 -61.38
15.84 -61.38
17.82 -61.38
19.8 -61.38
21.78 -61.38
23.76 -61.38
25.74 -61.38
27.72 -61.38
29.7 -61.38
31.68 -61.38
33.66 -61.38
35.64 -61.38
37.62 -61.38
39.6 -61.38
41.58 -61.38
43.56 -61.38
45.54 -61.38
47.52 -61.38
49.5 -61.38
51.48 -61.38
53.46 -61.38
55.44 -61.38
57.42 -61.38
59.4 -61.38
61.38 -61.38
63.36 -61.38
65.34 -61.38
67.32 -61.38
69.3 -61.38
71.28 -61.38
73.26 -61.38
75.24 -61.38
77.22 -61.38
79.2 -61.38
81.18 -61.38
83.16 -61.38
85.14 -61.38
87.12 -61.38
89.1 -61.38
91.08 -61.38
93.06 -61.38
95.04 -61.38
97.02 -61.38
-99 -59.4
-97.02 -59.4
-95.04 -59.4
-93.06 -59.4
-91.08 -59.4
-89.1 -59.4
-87.12 -59.4
-85.14 -59.4
-83.16 -59.4
-81.18 -59.4
-79.2 -59.4
-77.22 -59.4
-75.24 -59.4
-73.26 -59.4
-71.28 -59.4
-69.3 -59.4
-67.32 -59.4
-65.34 -59.4
-63.36 -59.4
-61.38 -59.4
-59.4 -59.4
-57.42 -59.4
-55.44 -59.4
-53.46 -59.4
-51.48 -59.4
-49.5 -59.4
-47.52 -59.4
-45.54 -59.4
-43.56 -59.4
-41.58 -59.4
-39.6 -59.4
-37.62 -59.4
-35.64 -59.4
-33.66 -59.4
-31.68 -59.4
-29.7 -59.4
-27.72 -59.4
-25.74 -59.4
-23.76 -59.4
-21.78 -59.4
-19.8 -59.4
-17.82 -59.4
-15.84 -59.4
-13.86 -59.4
-11.88 -59.4
-9.9 -59.4
-7.92 -59.4
-5.94 -59.4
-3.96 -59.4
-1.98 -59.4
0 -59.4
1.98 -59.4
3.96 -59.4
5.94 -59.4
7.92 -59.4
9.9 -59.4
11.88 -59.4
13.86 -59.4
15.84 -59.4
17.82 -59.4
19.8 -59.4
21.78 -59.4
23.76 -59.4
25.74 -59.4
27.72 -59.4
29.7 -59.4
31.68 -59.4
33.66 -59.4
35.64 -59.4
37.62 -59.4
39.6 -59.4
41.58 -59.4
43.56 -59.4
45.54 -59.4
47.52 -59.4
49.5 -59.4
51.48 -59.4
53.46 -59.4
55.44 -59.4
57.42 -59.4
59.4 -59.4
61.38 -59.4
63.36 -59.4
65.34 -59.4
67.32 -59.4
69.3 -59.4
71.28 -59.4
73.26 -59.4
75.24 -59.4
77.22 -59.4
79.2 -59.4
81.18 -59.4
83.16 -59.4
85.14 -59.4
87.12 -59.4
89.1 -59.4
91.08 -59.4
93.06 -59.4
95.04 -59.4
97.02 -59.4
-99 -57.42
-97.02 -57.42
-95.04 -57.42
-93.06 -57.42
-91.08 -57.42
-89.1 -57.42
-87.12 -57.42
-85.14 -57.42
-83.16 -57.42
-81.18 -57.42
-79.2 -57.42
-77.22 -57.42
-75.24 -57.42
-73.26 -57.42
-71.28 -57.42
-69.3 -57.42
-67.32 -57.42
-65.34 -57.42
-63.36 -57.42
-61.38 -57.42
-59.4 -57.42
-57.42 -57.42
-55.44 -57.42
-53.46 -57.42
-51.48 -57.42
-49.5 -57.42
-47.52 -57.42
-45.54 -57.42
-43.56 -57.42
-41.58 -57.42
-39.6 -57.42
-37.62 -57.42
-35.64 -57.42
-33.66 -57.42
-31.68 -57.42
-29.7 -57.42
-27.72 -57.42
-25.74 -57.42
-23.76 -57.42
-21.78 -57.42
-19.8 -57.42
-17.82 -57.42
-15.84 -57.42
-13.86 -57.42
-11.88 -57.42
-9.9 -57.42
-7.92 -57.42
-5.94 -57.42
-3.96 -57.42
-1.98 -57.42
0 -57.42
1.98 -57.42
3.96 -57.42
5.94 -57.42
7.92 -57.42
9.9 -57.42
11.88 -57.42
13.86 -57.42
15.84 -57.42
17.82 -57.42
19.8 -57.42
21.78 -57.42
23.76 -57.42
25.74 -57.42
27.72 -57.42
29.7 -57.42
31.68 -57.42
33.66 -57.42
35.64 -57.42
37.62 -57.42
39.6 -57.42
41.58 -57.42
43.56 -57.42
45.54 -57.42
47.52 -57.42
49.5 -57.42
51.48 -57.42
53.46 -57.42
55.44 -57.42
57.42 -57.42
59.4 -57.42
61.38 -57.42
63.36 -57.42
65.34 -57.42
67.32 -57.42
69.3 -57.42
71.28 -57.42
73.26 -57.42
75.24 -57.42
77.22 -57.42
79.2 -57.42
81.18 -57.42
83.16 -57.42
85.14 -57.42
87.12 -57.42
89.1 -57.42
91.08 -57.42
93.06 -57.42
95.04 -57.42
97.02 -57.42
-99 -55.44
-97.02 -55.44
-95.04 -55.44
-93.06 -55.44
-91.08 -55.44
-89.1 -55.44
-87.12 -55.44
-85.14 -55.44
-83.16 -55.44
-81.18 -55.44
-79.2 -55.44
-77.22 -55.44
-75.24 -55.44
-73.26 -55.44
-71.28 -55.44
-69.3 -55.44
-67.32 -55.44
-65.34 -55.44
-63.36 -55.44
-61.38 -55.44
-59.4 -55.44
-57.42 -55.44
-55.44 -55.44
-53.46 -55.44
-51.48 -55.44
-49.5 -55.44
-47.52 -55.44
-45.54 -55.44
-43.56 -55.44
-41.58 -55.44
-39.6 -55.44
-37.62 -55.44
-35.64 -55.44
-33.66 -55.44
-31.68 -55.44
-29.7 -55.44
-27.72 -55.44
-25.74 -55.44
-23.76 -55.44
-21.78 -55.44
-19.8 -55.44
-17.82 -55.44
-15.84 -55.44
-13.86 -55.44
-11.88 -55.44
-9.9 -55.44
-7.92 -55.44
-5.94 -55.44
-3.96 -55.44
-1.98 -55.44
0 -55.44
1.98 -55.44
3.96 -55.44
5.94 -55.44
7.92 -55.44
9.9 -55.44
11.88 -55.44
13.86 -55.44
15.84 -55.44
17.82 -55.44
19.8 -55.44
21.78 -55.44
23.76 -55.44
25.74 -55.44
27.72 -55.44
29.7 -55.44
31.68 -55.44
33.66 -55.44
35.64 -55.44
37.62 -55.44
39.6 -55.44
41.58 -55.44
43.56 -55.44
45.54 -55.44
47.52 -55.44
49.5 -55.44
51.48 -55.44
53.46 -55.44
55.44 -55.44
57.42 -55.44
59.4 -55.44
61.38 -55.44
63.36 -55.44
65.34 -55.44
67.32 -55.44
69.3 -55.44
71.28 -55.44
73.26 -55.44
75.24 -55.44
77.22 -55.44
79.2 -55.44
81.18 -55.44
83.16 -55.44
85.14 -55.44
87.12 -55.44
89.1 -55.44
91.08 -55.44
93.06 -55.44
95.04 -55.44
97.02 -55.44
-99 -53.46
-97.02 -53.46
-95.04 -53.46
-93.06 -53.46
-91.08 -53.46
-89.1 -53.46
-87.12 -53.46
-85.14 -53.46
-83.16 -53.46
-81.18 -53.46
-79.2 -53.46
-77.22 -53.46
-75.24 -53.46
-73.26 -53.46
-71.28 -53.46
-69.3 -53.46