ITEM: TIMESTEP
100
ITEM: NUMBER OF ATOMS
10000
ITEM: BOX BOUNDS pp pp pp
-9.9000000000000000e+01 9.9000000000000000e+01
-9.9000000000000000e+01 9.9000000000000000e+01
-1.9800000000000001e+01 1.9800000000000001e+01
ITEM: ATOMS x y
-99.0042 -99.002
-97.0179 -98.9967
-95.0349 -98.9933
-93.047 -98.9981
-91.0846 -98.9915
-89.0894 -98.9955
-87.1117 -98.9982
-85.1356 -99.0081
-83.1564 -99.0014
-81.1935 -99.0014
-79.1933 -98.9983
-77.2243 -99.0186
-75.2444 -99
-73.2599 -98.9981
-71.276 -99.0042
-69.3042 -98.9999
-67.318 -99.0034
-65.3365 -98.9955
-63.3726 -99.0036
-61.3843 -98.9903
-59.4008 -98.9983
-57.4419 -99.0057
-55.4275 -98.986
-53.4707 -99.0104
-51.4753 -98.9992
-49.5084 -99.0137
-47.5218 -98.9966
-45.5506 -98.998
-43.5463 -99.0138
-41.585 -98.9949
-39.6073 -99.003
-37.6248 -99.0083
-35.6442 -98.9985
-33.6607 -98.9891
-31.6781 -99.0032
-29.7063 -99.0078
-27.7157 -98.9951
-25.7323 -98.9933
-23.7542 -98.9858
-21.7728 -98.9994
-19.8021 -98.9936
-17.8259 -99.0119
-15.8388 -98.9944
-13.8645 -98.9992
-11.8789 -99.0111
-9.88962 -98.9888
-7.93202 -99.0021
-5.94209 -99.0012
-3.95905 -99.0057
-1.98546 -99.0004
0.0108635 -99.0002
1.98059 -99.0063
3.95689 -99.0059
5.94138 -98.9936
7.91322 -98.9959
9.88544 -98.9888
11.8693 -99.001
13.8553 -99.0078
15.8512 -99.0026
17.8301 -98.987
19.796 -98.9996
21.7895 -99.0044
23.7582 -98.9999
25.7417 -98.9967
27.7244 -99.0048
29.7062 -99.0023
31.684 -99.007
33.661 -98.9798
35.6371 -99.0099
37.6286 -99.009
39.5972 -99.0098
41.5729 -98.9977
43.5495 -98.9972
45.5378 -99.008
47.527 -98.9956
49.5048 -99.0012
51.4894 -99.0037
53.4587 -99.0066
55.4437 -98.9993
57.4259 -99.0035
59.4063 -99.0068
61.3819 -99.0032
63.3628 -99.0071
65.3405 -99.0063
67.3153 -98.9965
69.3028 -98.9902
71.2784 -99.0066
73.2457 -99.0014
75.2513 -99.0061
77.2307 -98.9996
79.2049 -99.0047
81.1919 -98.9921
83.1536 -99.0053
85.1368 -98.9993
87.1227 -98.9931
89.0939 -98.9911
91.0715 -98.998
93.0615 -99.0073
95.0299 -99.0038
97.0181 -98.9932
-98.9981 -97.0226
-97.0059 -97.0266
-95.0383 -97.0306
-93.0534 -97.0115
-91.0864 -97.0212
-89.0979 -97.0103
-87.1191 -97.0286
-85.1476 -97.0245
-83.1544 -97.0384
-81.1865 -97.0132
-79.2011 -97.0217
-77.2031 -97.0107
-75.2312 -97.0186
-73.2572 -97.0254
-71.2852 -97.0162
-69.3003 -97.0232
-67.3314 -97.0266
-65.3463 -97.0216
-63.3573 -97.034
-61.3938 -97.0303
-59.4085 -97.0397
-57.413 -97.0259
-55.4454 -97.0139
-53.4608 -97.0176
-51.4833 -97.0197
-49.4973 -97.0173
-47.5269 -97.0183
-45.5376 -97.0185
-43.5586 -97.0124
-41.583 -97.015
-39.6133 -97.0208
-37.6268 -97.0284
-35.637 -97.0247
-33.6645 -97.0183
-31.68 -97.0237
-29.7087 -97.0145
-27.7144 -97.0117
-25.7326 -97.0211
-23.7642 -97.019
-21.7793 -97.0228
-19.795 -97.0241
-17.8095 -97.02
-15.8443 -97.0193
-13.862 -97.0238
-11.8759 -97.016
-9.90147 -97.0142
-7.91799 -97.0293
-5.92194 -97.0254
-3.96784 -97.0126
-1.97175 -97.007
-0.000101471 -97.0163
1.96755 -97.0286
3.95247 -97.0272
5.95238 -97.0161
7.91765 -97.0236
9.90145 -97.0246
11.8802 -97.0223
13.8592 -97.0169
15.8402 -97.014
17.8289 -97.0297
19.8117 -97.0118
21.7887 -97.0159
23.7621 -97.0241
25.7382 -97.0194
27.711 -97.0336
29.6998 -97.0186
31.6879 -97.0223
33.6582 -97.0267
35.6433 -97.0275
37.6265 -97.0225
39.5922 -97.0076
41.5725 -97.0141
43.5582 -97.0077
45.5373 -97.0202
47.5259 -97.0253
49.5008 -97.0185
51.4843 -97.0138
53.4553 -97.0098
55.4336 -97.0153
57.4238 -97.0267
59.4039 -97.0248
61.3753 -97.0133
63.3584 -97.0149
65.3387 -97.028
67.3221 -97.006
69.2949 -97.0043
71.2772 -97.0227
73.265 -97.0153
75.2495 -97.0273
77.2204 -97.0321
79.2044 -97.0313
81.174 -97.0096
83.1579 -97.0235
85.1429 -97.0025
87.1081 -97.0101
89.1051 -97.028
91.082 -97.0178
93.0567 -97.0136
95.0428 -97.0011
97.0253 -97.0227
-98.9903 -95.0444
-97.0318 -95.0376
-95.0516 -95.0452
-93.0608 -95.0469
-91.0819 -95.031
-89.1065 -95.0334
-87.118 -95.0332
-85.1398 -95.0321
-83.167 -95.0419
-81.189 -95.0389
-79.2055 -95.0519
-77.221 -95.0526
-75.224 -95.0349
-73.2575 -95.0455
-71.2773 -95.0429
-69.3051 -95.0424
-67.328 -95.044
-65.3387 -95.0317
-63.3635 -95.0402
-61.377 -95.0333
-59.4057 -95.0308
-57.4236 -95.0334
-55.4329 -95.0442
-53.4602 -95.0323
-51.4756 -95.027
-49.4903 -95.0519
-47.5141 -95.0341
-45.5463 -95.0415
-43.561 -95.0352
-41.577 -95.0482
-39.5908 -95.042
-37.6292 -95.0481
-35.6412 -95.0461
-33.6543 -95.0372
-31.6759 -95.0397
-29.6955 -95.026
-27.7213 -95.0387
-25.7499 -95.0411
-23.7624 -95.0399
-21.7829 -95.0399
-19.802 -95.043
-17.8302 -95.0298
-15.8458 -95.039
-13.8719 -95.0454
-11.893 -95.0377
-9.90434 -95.0352
-7.9264 -95.0505
-5.93167 -95.0323
-3.95304 -95.0364
-1.9802 -95.0393
0.00529539 -95.0336
1.98268 -95.0412
3.96364 -95.0395
5.92907 -95.0461
7.92165 -95.0398
9.91888 -95.0425
11.8865 -95.0397
13.8572 -95.0422
15.8376 -95.032
17.8206 -95.0458
19.8021 -95.0392
21.7889 -95.0427
23.7528 -95.0377
25.7453 -95.0519
27.719 -95.0383
29.6902 -95.0354
31.6712 -95.0342
33.6692 -95.0333
35.6297 -95.0458
37.6257 -95.043
39.6007 -95.0349
41.587 -95.0444
43.5649 -95.0445
45.5363 -95.0437
47.5231 -95.0376
49.5041 -95.0401
51.4782 -95.0397
53.4651 -95.0542
55.4535 -95.0403
57.4161 -95.0482
59.3965 -95.0318
61.3828 -95.0486
63.3667 -95.0458
65.3328 -95.0482
67.3278 -95.0345
69.3004 -95.0369
71.2789 -95.0377
73.2697 -95.0389
75.2359 -95.0456
77.2237 -95.0303
79.1893 -95.0392
81.1807 -95.04
83.1691 -95.0462
85.1327 -95.0351
87.1233 -95.0405
89.1009 -95.0265
91.0828 -95.0317
93.0509 -95.0447
95.049 -95.042
97.0179 -95.0406
-98.9936 -93.0581
-97.0104 -93.0586
-95.0361 -93.0682
-93.0699 -93.0628
-91.0859 -93.06
-89.0985 -93.0696
-87.1218 -93.0697
-85.1357 -93.0533
-83.1627 -93.0507
-81.168 -93.0612
-79.2138 -93.0633
-77.2198 -93.0632
-75.2423 -93.062
-73.2626 -93.0451
-71.2774 -93.0631
-69.3011 -93.0644
-67.3192 -93.0615
-65.3346 -93.0655
-63.3573 -93.0601
-61.3788 -93.0745
-59.4146 -93.0643
-57.4133 -93.0641
-55.4358 -93.0513
-53.462 -93.0541
-51.4866 -93.0579
-49.4889 -93.0688
-47.5158 -93.0602
-45.5362 -93.0522
-43.5574 -93.0539
-41.5789 -93.0478
-39.5959 -93.0455
-37.6197 -93.06
-35.6301 -93.0561
-33.6501 -93.0704
-31.6681 -93.0592
-29.7003 -93.0567
-27.7192 -93.0628
-25.7525 -93.0597
-23.7485 -93.067
-21.784 -93.0594
-19.8015 -93.0628
-17.8068 -93.0658
-15.8314 -93.0639
-13.8599 -93.0635
-11.8788 -93.0594
-9.90263 -93.0626
-7.91453 -93.0587
-5.9455 -93.0603
-3.96108 -93.0677
-1.98216 -93.0537
-0.00723945 -93.0602
1.97763 -93.0652
3.96823 -93.061
5.9274 -93.0535
7.90394 -93.0679
9.89529 -93.0725
11.8816 -93.0686
13.8503 -93.0638
15.847 -93.0614
17.8199 -93.0513
19.7938 -93.0543
21.7711 -93.0601
23.758 -93.0624
25.7483 -93.0588
27.718 -93.0534
29.6937 -93.0545
31.6678 -93.0573
33.6561 -93.0674
35.6444 -93.0576
37.6218 -93.0599
39.598 -93.0613
41.5787 -93.0563
43.5569 -93.0602
45.5322 -93.0546
47.518 -93.0623
49.499 -93.0582
51.4827 -93.0554
53.443 -93.0594
55.4413 -93.0602
57.4184 -93.0592
59.4041 -93.0598
61.3746 -93.0531
63.3631 -93.0581
65.3408 -93.0538
67.32 -93.0606
69.3009 -93.0693
71.2877 -93.0602
73.2651 -93.0403
75.2366 -93.055
77.2115 -93.06
79.1972 -93.0616
81.196 -93.0761
83.1697 -93.0527
85.1516 -93.0581
87.1131 -93.0588
89.1073 -93.0605
91.0905 -93.0605
93.0567 -93.0664
95.0336 -93.0684
97.0203 -93.0513
-99.0027 -91.0611
-97.0146 -91.0922
-95.0439 -91.0813
-93.056 -91.0817
-91.0842 -91.0799
-89.0996 -91.0843
-87.1221 -91.07
-85.1394 -91.0843
-83.1519 -91.0926
-81.1668 -91.0721
-79.203 -91.0814
-77.2192 -91.0849
-75.2492 -91.0805
-73.2667 -91.0901
-71.2817 -91.0726
-69.2998 -91.0832
-67.3192 -91.0819
-65.3291 -91.0733
-63.3668 -91.0925
-61.3824 -91.0737
-59.4052 -91.0893
-57.418 -91.0836
-55.4496 -91.0786
-53.4629 -91.0945
-51.4832 -91.0738
-49.4946 -91.0782
-47.5287 -91.0799
-45.5454 -91.0718
-43.57 -91.0793
-41.5797 -91.0796
-39.5947 -91.0762
-37.6215 -91.0756
-35.6412 -91.0754
-33.6519 -91.0722
-31.677 -91.0875
-29.692 -91.0801
-27.7369 -91.0939
-25.7369 -91.0828
-23.7476 -91.0832
-21.7772 -91.0849
-19.7928 -91.0811
-17.8223 -91.0719
-15.8377 -91.0824
-13.8556 -91.085
-11.8762 -91.0832
-9.89827 -91.0852
-7.92243 -91.0852
-5.94093 -91.084
-3.9645 -91.0803
-1.98094 -91.0765
-0.00055905 -91.0834
1.97706 -91.081
3.9564 -91.073
5.93757 -91.0745
7.92441 -91.0888
9.88886 -91.0796
11.8721 -91.078
13.8689 -91.081
15.8362 -91.0875
17.8211 -91.0808
19.8094 -91.0795
21.7835 -91.0826
23.7659 -91.0708
25.7412 -91.0916
27.7229 -91.0732
29.7024 -91.0747
31.691 -91.0788
33.6637 -91.0742
35.6344 -91.068
37.6246 -91.0676
39.5907 -91.0775
41.5763 -91.0842
43.5596 -91.0825
45.5362 -91.0732
47.5154 -91.0809
49.4955 -91.0805
51.4884 -91.0839
53.4514 -91.0684
55.4469 -91.0683
57.4235 -91.08
59.4076 -91.0873
61.3835 -91.0792
63.3706 -91.0813
65.3354 -91.0859
67.3172 -91.0784
69.3007 -91.0837
71.2776 -91.0852
73.2631 -91.0798
75.2383 -91.0844
77.2211 -91.0901
79.1896 -91.0816
81.1888 -91.089
83.1532 -91.0729
85.1401 -91.0753
87.1102 -91.0752
89.102 -91.0657
91.0694 -91.0919
93.0688 -91.0754
95.0351 -91.0741
97.0158 -91.0711
-99.0006 -89.097
-97.0086 -89.1022
-95.0337 -89.1032
-93.0688 -89.0967
-91.0798 -89.0936
-89.1005 -89.0884
-87.1133 -89.0984
-85.1439 -89.103
-83.1581 -89.1104
-81.1811 -89.087
-79.2031 -89.1009
-77.2161 -89.1078
-75.2359 -89.0956
-73.2584 -89.1071
-71.2924 -89.0938
-69.2975 -89.0966
-67.3223 -89.1074
-65.3335 -89.0958
-63.3684 -89.096
-61.3909 -89.1068
-59.3906 -89.0976
-57.4211 -89.1056
-55.4366 -89.1077
-53.4549 -89.1014
-51.4723 -89.0995
-49.4868 -89.0996
-47.5199 -89.0926
-45.5454 -89.0919
-43.554 -89.0971
-41.5781 -89.1091
-39.5947 -89.1055
-37.6106 -89.102
-35.641 -89.1065
-33.674 -89.094
-31.6876 -89.0898
-29.7093 -89.1072
-27.7255 -89.1089
-25.7337 -89.1057
-23.7577 -89.0939
-21.7873 -89.107
-19.803 -89.113
-17.7998 -89.1016
-15.8453 -89.088
-13.8604 -89.1029
-11.8782 -89.1067
-9.89335 -89.1117
-7.91697 -89.1123
-5.95255 -89.1048
-3.95725 -89.0991
-1.97239 -89.1011
0.0129746 -89.103
1.98682 -89.089
3.9503 -89.0989
5.94446 -89.1039
7.92232 -89.1063
9.8919 -89.0997
11.8772 -89.1058
13.8613 -89.1087
15.8376 -89.0979
17.8243 -89.106
19.8024 -89.1081
21.7734 -89.0994
23.7592 -89.1076
25.7347 -89.0968
27.7255 -89.1006
29.7127 -89.0976
31.6847 -89.0982
33.6522 -89.0937
35.6323 -89.1025
37.6317 -89.094
39.5913 -89.094
41.5873 -89.1067
43.5588 -89.1014
45.5506 -89.087
47.5156 -89.115
49.4992 -89.0846
51.4927 -89.0934
53.4723 -89.0933
55.4447 -89.0995
57.4243 -89.0987
59.4083 -89.1025
61.3706 -89.1008
63.3618 -89.1019
65.3393 -89.1002
67.3137 -89.113
69.2966 -89.0858
71.2849 -89.0981
73.2599 -89.0971
75.2303 -89.0826
77.2128 -89.0846
79.2 -89.0981
81.1884 -89.0926
83.1521 -89.0913
85.1364 -89.0946
87.113 -89.1097
89.1037 -89.1064
91.0785 -89.1009
93.059 -89.0906
95.0428 -89.1088
97.0232 -89.0928
-99.0026 -87.1303
-97.0254 -87.1113
-95.0398 -87.1147
-93.0494 -87.1231
-91.071 -87.1234
-89.1096 -87.1187
-87.122 -87.12
-85.1431 -87.116
-83.1564 -87.1283
-81.1717 -87.1237
-79.2022 -87.1367
-77.2164 -87.1216
-75.2444 -87.1156
-73.2571 -87.1228
-71.2776 -87.1175
-69.2977 -87.1115
-67.3242 -87.1154
-65.3436 -87.1193
-63.3445 -87.1244
-61.3753 -87.1204
-59.3934 -87.132
-57.4111 -87.1197
-55.439 -87.1283
-53.4606 -87.1221
-51.4833 -87.1089
-49.4915 -87.1287
-47.5162 -87.1191
-45.5447 -87.118
-43.5723 -87.1137
-41.5934 -87.118
-39.5974 -87.1216
-37.6222 -87.1174
-35.6396 -87.1166
-33.6571 -87.1208
-31.6812 -87.1113
-29.7024 -87.1206
-27.7129 -87.1217
-25.7363 -87.112
-23.75 -87.1294
-21.7821 -87.1274
-19.8067 -87.1268
-17.8134 -87.1291
-15.8443 -87.1166
-13.8573 -87.1283
-11.8746 -87.1289
-9.90238 -87.1196
-7.91096 -87.1102
-5.94099 -87.1127
-3.96296 -87.1076
-1.97846 -87.1313
0.00108051 -87.116
1.98882 -87.1218
3.96072 -87.1255
5.94553 -87.1133
7.91141 -87.1156
9.8985 -87.1179
11.8795 -87.123
13.8607 -87.1194
15.8417 -87.1206
17.8295 -87.127
19.7916 -87.1206
21.7829 -87.1237
23.765 -87.1131
25.7411 -87.1167
27.7145 -87.1072
29.7037 -87.1117
31.6783 -87.1136
33.652 -87.1167
35.6458 -87.1111
37.6151 -87.1236
39.5981 -87.124
41.5949 -87.1131
43.5535 -87.118
45.538 -87.1163
47.5294 -87.1146
49.4897 -87.121
51.4796 -87.1215
53.4639 -87.1177
55.4495 -87.1222
57.4258 -87.1184
59.3887 -87.1204
61.3817 -87.1215
63.3636 -87.1172
65.3422 -87.1134
67.3182 -87.1223
69.2979 -87.1114
71.274 -87.1163
73.2574 -87.1208
75.237 -87.1177
77.2094 -87.1102
79.2057 -87.1249
81.1699 -87.118
83.1483 -87.1106
85.143 -87.1215
87.107 -87.1161
89.0993 -87.1173
91.0699 -87.108
93.0518 -87.1237
95.027 -87.1207
97.0155 -87.1212
-98.9987 -85.133
-97.0273 -85.1379
-95.0367 -85.1481
-93.0548 -85.1465
-91.0836 -85.1482
-89.1057 -85.1461
-87.1163 -85.1486
-85.134 -85.1467
-83.1512 -85.1345
-81.1779 -85.1343
-79.2017 -85.144
-77.2214 -85.1424
-75.2356 -85.1443
-73.2706 -85.1483
-71.281 -85.1317
-69.3041 -85.1426
-67.3094 -85.1506
-65.3275 -85.1381
-63.3715 -85.1313
-61.3746 -85.1331
-59.3878 -85.1531
-57.4264 -85.1431
-55.4408 -85.1441
-53.4569 -85.1432
-51.4832 -85.1326
-49.4975 -85.1422
-47.5193 -85.1408
-45.5439 -85.1376
-43.56 -85.1359
-41.5839 -85.1426
-39.606 -85.1411
-37.6166 -85.1378
-35.6309 -85.143
-33.6593 -85.1454
-31.6824 -85.1333
-29.6914 -85.1262
-27.722 -85.1306
-25.7446 -85.1416
-23.7671 -85.1431
-21.7843 -85.1446
-19.8026 -85.1375
-17.8148 -85.1397
-15.8375 -85.1359
-13.8547 -85.1334
-11.8781 -85.1316
-9.8975 -85.1521
-7.92024 -85.1347
-5.92931 -85.1422
-3.95991 -85.1459
-1.9787 -85.1435
0.0103382 -85.1461
1.97687 -85.136
3.95593 -85.1536
5.94185 -85.1427
7.92295 -85.1362
9.89962 -85.1372
11.8841 -85.1411
13.8521 -85.1435
15.8414 -85.1474
17.8214 -85.1257
19.7999 -85.1346
21.7874 -85.1367
23.7587 -85.1389
25.7437 -85.1532
27.719 -85.1465
29.6985 -85.1512
31.6819 -85.1472
33.6719 -85.1403
35.6422 -85.1289
37.6162 -85.1457
39.6042 -85.1262
41.5868 -85.1486
43.5573 -85.1393
45.546 -85.1476
47.519 -85.1303
49.5035 -85.1358
51.4803 -85.1388
53.4603 -85.144
55.4377 -85.136
57.4237 -85.141
59.3984 -85.142
61.3903 -85.1452
63.3615 -85.1519
65.3318 -85.1353
67.3238 -85.1395
69.3135 -85.1459
71.2725 -85.1331
73.2528 -85.1343
75.2344 -85.1404
77.2053 -85.1468
79.2036 -85.1488
81.1812 -85.1452
83.1565 -85.1369
85.1341 -85.1512
87.1161 -85.1352
89.0959 -85.1397
91.0735 -85.1341
93.0685 -85.1474
95.0431 -85.1395
97.0088 -85.1365
-99.0027 -83.162
-97.014 -83.1617
-95.0514 -83.1458
-93.0586 -83.1654
-91.0716 -83.1676
-89.107 -83.1667
-87.1205 -83.1584
-85.1505 -83.1583
-83.157 -83.161
-81.176 -83.1649
-79.2063 -83.1512
-77.22 -83.1526
-75.2456 -83.1574
-73.2461 -83.1712
-71.2839 -83.1538
-69.3043 -83.169
-67.3187 -83.1607
-65.3363 -83.1656
-63.355 -83.1486
-61.379 -83.1618
-59.4025 -83.1578
-57.4164 -83.1623
-55.4328 -83.1516
-53.4618 -83.1622
-51.4793 -83.163
-49.5026 -83.1632
-47.5061 -83.1644
-45.5465 -83.1651
-43.5481 -83.1494
-41.5913 -83.1631
-39.6094 -83.1588
-37.6175 -83.1476
-35.6442 -83.1528
-33.6607 -83.1599
-31.6811 -83.1674
-29.7015 -83.1631
-27.7156 -83.1522
-25.7368 -83.1706
-23.7519 -83.1615
-21.7783 -83.1516
-19.8018 -83.1486
-17.8219 -83.1584
-15.8405 -83.1692
-13.8502 -83.1638
-11.8793 -83.1638
-9.90646 -83.1664
-7.91731 -83.1608
-5.93987 -83.1596
-3.95924 -83.1594
-1.97567 -83.1574
0.0047998 -83.1631
1.97687 -83.1635
3.95938 -83.1693
5.93259 -83.1566
7.91289 -83.1649
9.89247 -83.157
11.8835 -83.1735
13.866 -83.1631
15.8356 -83.1681
17.8297 -83.1565
19.8027 -83.1552
21.7767 -83.1535
23.7577 -83.1622
25.7425 -83.155
27.7226 -83.1657
29.6992 -83.164
31.6729 -83.1607
33.6596 -83.1679
35.6405 -83.1508
37.6179 -83.1599
39.6135 -83.1544
41.5771 -83.1621
43.571 -83.1658
45.5395 -83.1573
47.5272 -83.166
49.4859 -83.1544
51.4812 -83.155
53.4566 -83.1652
55.4384 -83.1524
57.423 -83.1654
59.3991 -83.1629
61.3803 -83.1749
63.3642 -83.1607
65.3444 -83.1555
67.3059 -83.1715
69.2884 -83.1662
71.2859 -83.1672
73.2641 -83.1642
75.2558 -83.1656
77.2198 -83.1549
79.1888 -83.1624
81.1794 -83.1678
83.1639 -83.1627
85.1317 -83.1583
87.1239 -83.1757
89.095 -83.1667
91.075 -83.1596
93.0623 -83.1613
95.0405 -83.1713
97.0126 -83.1692
-99.0006 -81.1785
-97.0187 -81.178
-95.0432 -81.1691
-93.0577 -81.1754
-91.0787 -81.1749
-89.1015 -81.1918
-87.1181 -81.171
-85.1285 -81.1851
-83.1629 -81.1832
-81.1793 -81.1721
-79.2079 -81.1709
-77.2237 -81.1896
-75.2323 -81.1782
-73.259 -81.1862
-71.2915 -81.1938
-69.3079 -81.1748
-67.3233 -81.1891
-65.3314 -81.1795
-63.3556 -81.1986
-61.3799 -81.1713
-59.4004 -81.1739
-57.4173 -81.1905
-55.4411 -81.1963
-53.467 -81.1832
-51.4696 -81.1817
-49.494 -81.1874
-47.5153 -81.1759
-45.5307 -81.1766
-43.5569 -81.1823
-41.5869 -81.1808
-39.6022 -81.1722
-37.6143 -81.1839
-35.636 -81.175
-33.6594 -81.1881
-31.6789 -81.1821
-29.6968 -81.1763
-27.7155 -81.1786
-25.7337 -81.1695
-23.7668 -81.1869
-21.7807 -81.1826
-19.7912 -81.1692
-17.821 -81.1767
-15.8423 -81.1863
-13.8604 -81.1909
-11.8729 -81.1692
-9.89429 -81.1824
-7.91139 -81.1825
-5.93727 -81.1758
-3.95886 -81.1882
-1.98067 -81.1853
0.00361614 -81.1846
1.98375 -81.1835
3.94826 -81.1859
5.93061 -81.1806
7.92778 -81.179
9.90793 -81.1789
11.8785 -81.1898
13.8519 -81.1762
15.8432 -81.1783
17.8039 -81.1718
19.7905 -81.1702
21.7815 -81.1795
23.7555 -81.1896
25.7351 -81.1812
27.7159 -81.1878
29.6987 -81.1718
31.6726 -81.1902
33.6587 -81.175
35.6411 -81.189
37.6083 -81.1836
39.6064 -81.1834
41.5849 -81.1797
43.5513 -81.1713
45.5437 -81.1678
47.5211 -81.182
49.5053 -81.1722
51.4742 -81.1808
53.4609 -81.1859
55.4447 -81.1744
57.4176 -81.1678
59.3931 -81.1774
61.3701 -81.1781
63.364 -81.1888
65.3485 -81.1843
67.3157 -81.1807
69.2917 -81.1786
71.2864 -81.1691
73.2566 -81.1886
75.2367 -81.1713
77.2306 -81.1782
79.1807 -81.1757
81.1888 -81.1865
83.1634 -81.1868
85.1392 -81.1686
87.1337 -81.1816
89.1021 -81.184
91.0855 -81.1861
93.0478 -81.1776
95.0399 -81.1835
97.0188 -81.1781
-98.9886 -79.1918
-97.0223 -79.203
-95.0569 -79.1955
-93.0573 -79.1889
-91.0879 -79.1979
-89.1024 -79.1949
-87.1239 -79.1979
-85.1443 -79.1872
-83.1538 -79.1904
-81.1902 -79.2094
-79.2013 -79.1982
-77.2208 -79.2054
-75.2419 -79.1818
-73.2556 -79.197
-71.2852 -79.1895
-69.2947 -79.2029
-67.3251 -79.1979
-65.3404 -79.1997
-63.3563 -79.1928
-61.3753 -79.1906
-59.4046 -79.199
-57.4177 -79.1995
-55.4511 -79.2049
-53.4591 -79.204
-51.4786 -79.1946
-49.499 -79.2008
-47.5199 -79.2089
-45.5494 -79.197
-43.5596 -79.2052
-41.5837 -79.2024
-39.605 -79.2035
-37.6335 -79.1988
-35.6389 -79.1915
-33.6635 -79.2052
-31.6926 -79.2011
-29.7006 -79.202
-27.7245 -79.2022
-25.7382 -79.1994
-23.753 -79.2041
-21.7868 -79.2105
-19.7919 -79.1913
-17.8279 -79.1987
-15.8444 -79.1913
-13.8531 -79.1962
-11.8826 -79.1989
-9.89848 -79.2099
-7.92109 -79.1997
-5.93778 -79.2049
-3.96444 -79.1983
-1.97531 -79.207
-0.00198343 -79.194
1.97772 -79.1912
3.95965 -79.1915
5.94049 -79.206
7.93138 -79.196
9.89736 -79.1974
11.8818 -79.2108
13.8658 -79.1978
15.8293 -79.2026
17.8249 -79.2129
19.7958 -79.1972
21.7874 -79.1975
23.7673 -79.1948
25.7475 -79.1954
27.7129 -79.1904
29.6983 -79.2058
31.6917 -79.1972
33.6741 -79.1943
35.6441 -79.1929
37.6157 -79.192
39.5961 -79.2093
41.5747 -79.2076
43.5563 -79.2052
45.5442 -79.1921
47.5331 -79.2097
49.4973 -79.1973
51.4879 -79.195
53.4659 -79.2004
55.4366 -79.2045
57.4174 -79.2019
59.4 -79.207
61.3809 -79.2129
63.3583 -79.1956
65.338 -79.2133
67.3186 -79.1979
69.3001 -79.2
71.295 -79.1989
73.2517 -79.2015
75.2397 -79.2043
77.2126 -79.1981
79.1933 -79.2055
81.1809 -79.1952
83.1574 -79.1925
85.1348 -79.2023
87.1218 -79.1883
89.1113 -79.2007
91.0834 -79.1963
93.0631 -79.2081
95.0438 -79.2003
97.0254 -79.203
-98.9995 -77.2182
-97.0119 -77.226
-95.032 -77.2216
-93.0648 -77.2155
-91.0863 -77.2213
-89.0975 -77.2236
-87.1127 -77.2207
-85.1366 -77.2218
-83.1622 -77.2223
-81.1783 -77.2132
-79.1996 -77.215
-77.2151 -77.2213
-75.2432 -77.2275
-73.2626 -77.2182
-71.2744 -77.2298
-69.2965 -77.2241
-67.3213 -77.218
-65.3475 -77.2202
-63.3688 -77.229
-61.3821 -77.2251
-59.3881 -77.2163
-57.4158 -77.2182
-55.4359 -77.2114
-53.4691 -77.2323
-51.4763 -77.2136
-49.4962 -77.2258
-47.5262 -77.2113
-45.5514 -77.2273
-43.5557 -77.2213
-41.5833 -77.2333
-39.6013 -77.2321
-37.6183 -77.2283
-35.6377 -77.2197
-33.6529 -77.2119
-31.6826 -77.2076
-29.7006 -77.2256
-27.7129 -77.2216
-25.7433 -77.2145
-23.7643 -77.2136
-21.7703 -77.2183
-19.7928 -77.2166
-17.8141 -77.2225
-15.8517 -77.2214
-13.8609 -77.213
-11.8925 -77.2189
-9.89299 -77.2249
-7.90896 -77.204
-5.93991 -77.2279
-3.96094 -77.2261
-1.97912 -77.2093
-0.00126478 -77.2164
1.97891 -77.221
3.96096 -77.2155
5.9371 -77.2183
7.92361 -77.2183
9.90481 -77.2132
11.8805 -77.2255
13.8705 -77.2218
15.8289 -77.2219
17.8126 -77.2211
19.8026 -77.2268
21.7724 -77.224
23.7761 -77.2166
25.7446 -77.2296
27.7182 -77.2137
29.7075 -77.2193
31.6807 -77.2129
33.6659 -77.2236
35.6469 -77.2123
37.6166 -77.2211
39.5955 -77.2256
41.5815 -77.2178
43.5672 -77.2254
45.5423 -77.2194
47.5203 -77.2139
49.5122 -77.2102
51.4735 -77.2229
53.4522 -77.2077
55.4398 -77.2286
57.4137 -77.2139
59.3929 -77.2115
61.3768 -77.222
63.3648 -77.2069
65.3325 -77.22
67.3215 -77.2219
69.2931 -77.2151
71.2745 -77.2152
73.2594 -77.2106
75.2423 -77.21
77.2277 -77.2274
79.2108 -77.2216
81.1786 -77.227
83.1567 -77.2205
85.1526 -77.2196
87.121 -77.2054
89.0922 -77.2139
91.0676 -77.214
93.0532 -77.2221
95.0479 -77.2218
97.0148 -77.214
-99.0048 -75.2447
-97.0291 -75.236
-95.0371 -75.2378
-93.0533 -75.2325
-91.0756 -75.232
-89.1035 -75.2428
-87.1079 -75.2466
-85.1322 -75.2463
-83.1611 -75.2285
-81.162 -75.2305
-79.1991 -75.2326
-77.2217 -75.2538
-75.238 -75.2305
-73.25 -75.2358
-71.2874 -75.2468
-69.2969 -75.2487
-67.3103 -75.2352
-65.3413 -75.2412
-63.3602 -75.241
-61.3849 -75.2457
-59.4037 -75.239
-57.4213 -75.2401
-55.4511 -75.245
-53.4656 -75.2365
-51.4706 -75.2463
-49.5041 -75.2455
-47.5168 -75.2346
-45.545 -75.2488
-43.564 -75.2385
-41.5762 -75.2488
-39.5905 -75.2435
-37.6321 -75.2424
-35.6422 -75.2469
-33.6684 -75.2501
-31.6752 -75.2353
-29.7016 -75.2451
-27.7131 -75.2402
-25.7395 -75.2339
-23.7589 -75.2453
-21.7861 -75.2419
-19.7967 -75.2387
-17.8212 -75.2455
-15.8435 -75.2388
-13.8538 -75.2341
-11.8782 -75.242
-9.90745 -75.2388
-7.93107 -75.2524
-5.95249 -75.2464
-3.96593 -75.2373
-1.9703 -75.2399
0.0110652 -75.2377
1.97791 -75.2458
3.96115 -75.2318
5.94148 -75.2328
7.92352 -75.2442
9.89484 -75.2434
11.8711 -75.2434
13.8538 -75.2263
15.8467 -75.2376
17.8234 -75.2415
19.8077 -75.234
21.7758 -75.2379
23.7536 -75.2338
25.7459 -75.2396
27.7124 -75.2442
29.7007 -75.2535
31.6774 -75.2442
33.649 -75.2367
35.633 -75.2398
37.6167 -75.2457
39.6101 -75.2443
41.5831 -75.2449
43.5655 -75.2441
45.5347 -75.2371
47.5154 -75.2404
49.5033 -75.2389
51.4706 -75.2383
53.4721 -75.2377
55.4429 -75.2448
57.4154 -75.2447
59.4055 -75.2394
61.3816 -75.2412
63.3591 -75.2413
65.3501 -75.2372
67.3216 -75.2485
69.2856 -75.2353
71.2758 -75.2372
73.2538 -75.2364
75.2403 -75.238
77.2151 -75.2363
79.1974 -75.2488
81.1819 -75.2354
83.1581 -75.2479
85.1401 -75.2305
87.1187 -75.234
89.1083 -75.2464
91.0754 -75.2512
93.0726 -75.2294
95.0313 -75.2491
97.0245 -75.2429
-99.0004 -73.2598
-97.0263 -73.2579
-95.0453 -73.2525
-93.0619 -73.2632
-91.0796 -73.2556
-89.0907 -73.2648
-87.1122 -73.2581
-85.1348 -73.2467
-83.1585 -73.2628
-81.184 -73.2736
-79.1912 -73.2605
-77.2163 -73.2599
-75.2328 -73.2552
-73.2616 -73.259
-71.2793 -73.2713
-69.2959 -73.2627
-67.3292 -73.2684
-65.3415 -73.2669
-63.3533 -73.2647
-61.3713 -73.2573
-59.3987 -73.2664
-57.4237 -73.2673
-55.4486 -73.2672
-53.4677 -73.2611
-51.4733 -73.2635
-49.5084 -73.2595
-47.5206 -73.2485
-45.5385 -73.2525
-43.5661 -73.259
-41.577 -73.2605
-39.612 -73.2478
-37.6162 -73.2664
-35.6468 -73.2653
-33.6605 -73.2676
-31.6877 -73.2626
-29.6923 -73.267
-27.7159 -73.2717
-25.7373 -73.2636
-23.7613 -73.2645
-21.7849 -73.2669
-19.8043 -73.2468
-17.8201 -73.2531
-15.8383 -73.2604
-13.8611 -73.2581
-11.8784 -73.2585
-9.90513 -73.2624
-7.92606 -73.2687
-5.94534 -73.2595
-3.96552 -73.2618
-1.98774 -73.2576
0.00505322 -73.268
1.97353 -73.2606
3.96485 -73.2632
5.94151 -73.2668
7.93336 -73.2468
9.89543 -73.2508
11.8863 -73.2525
13.8578 -73.2578
15.8276 -73.267
17.8153 -73.2557
19.8041 -73.2525
21.7882 -73.2651
23.7631 -73.263
25.7464 -73.2519
27.7141 -73.2521
29.6986 -73.2652
31.6708 -73.2458
33.6598 -73.2592
35.6427 -73.2617
37.6401 -73.2588
39.6149 -73.257
41.5826 -73.2615
43.56 -73.2722
45.5464 -73.2653
47.5226 -73.2666
49.4931 -73.2598
51.486 -73.2694
53.4542 -73.2483
55.442 -73.2547
57.415 -73.2579
59.4052 -73.2616
61.3816 -73.2732
63.3555 -73.2645
65.3296 -73.2675
67.3235 -73.2523
69.3004 -73.2579
71.2735 -73.2626
73.2569 -73.2503
75.2296 -73.2453
77.2264 -73.2649
79.2019 -73.2667
81.1835 -73.2459
83.1572 -73.2511
85.1372 -73.2663
87.1238 -73.2528
89.1069 -73.262
91.0724 -73.2578
93.054 -73.2614
95.0479 -73.2539
97.0239 -73.2679
-99.0024 -71.2824
-97.0259 -71.2834
-95.0457 -71.278
-93.064 -71.2763
-91.0776 -71.2741
-89.0956 -71.2797
-87.1206 -71.2913
-85.1496 -71.2842
-83.1558 -71.2818
-81.1832 -71.2787
-79.1948 -71.2759
-77.2182 -71.2894
-75.243 -71.2874
-73.2721 -71.2794
-71.2697 -71.2951
-69.3091 -71.2756
-67.3244 -71.2851
-65.3351 -71.2717
-63.3647 -71.2831
-61.385 -71.2776
-59.411 -71.2841
-57.4267 -71.2632
-55.4425 -71.2872
-53.454 -71.2681
-51.4853 -71.2879
-49.4958 -71.2965
-47.5107 -71.2916
-45.5398 -71.2788
-43.5696 -71.2872
-41.5818 -71.2839
-39.6078 -71.2735
-37.6217 -71.2711
-35.6404 -71.2911
-33.6564 -71.2859
-31.6724 -71.272
-29.6933 -71.2782
-27.719 -71.2725
-25.7304 -71.2799
-23.7582 -71.2838
-21.781 -71.2832
-19.7945 -71.276
-17.8275 -71.2691
-15.8389 -71.2735
-13.8614 -71.2829
-11.8749 -71.2756
-9.91264 -71.2822
-7.91904 -71.28
-5.9332 -71.2782
-3.9641 -71.2868
-1.97527 -71.2942
-0.000164149 -71.282
1.98563 -71.2716
3.96934 -71.2846
5.94687 -71.2869
7.92872 -71.2794
9.90451 -71.2866
11.8825 -71.2704
13.8724 -71.2808
15.8458 -71.2878
17.8206 -71.2808
19.7954 -71.2676
21.7821 -71.2815
23.7545 -71.2771
25.7426 -71.2759
27.7177 -71.2803
29.6947 -71.2637
31.6809 -71.2817
33.6602 -71.272
35.65 -71.2737
37.6231 -71.2682
39.6078 -71.2852
41.5734 -71.2789
43.5593 -71.2847
45.531 -71.2811
47.5256 -71.2815
49.4999 -71.2815
51.4794 -71.2788
53.4658 -71.2738
55.437 -71.2742
57.4244 -71.2757
59.4103 -71.2773
61.378 -71.2759
63.3698 -71.275
65.3333 -71.2861
67.3262 -71.2884
69.2873 -71.2924
71.2766 -71.2698
73.2612 -71.2828
75.2412 -71.2783
77.2266 -71.2816
79.2072 -71.2757
81.1877 -71.2846
83.1515 -71.2856
85.1375 -71.2634
87.1146 -71.2729
89.1109 -71.2757
91.0841 -71.2733
93.0533 -71.2867
95.0344 -71.2821
97.0213 -71.2812
-98.993 -69.3016
-97.0165 -69.3035
-95.0426 -69.3014
-93.0596 -69.3056
-91.0861 -69.3014
-89.1078 -69.3001
-87.1188 -69.3133
-85.1405 -69.2992
-83.1515 -69.29
-81.1702 -69.2984
-79.1965 -69.3034
-77.2257 -69.3032
-75.2316 -69.2976
-73.2567 -69.3011
-71.2746 -69.2983
-69.2977 -69.2941
-67.3213 -69.3013
-65.3414 -69.2896
-63.3548 -69.302
-61.3783 -69.2896
-59.4013 -69.294
-57.4135 -69.2939
-55.4381 -69.2885
-53.454 -69.3017
-51.4717 -69.3007
-49.5062 -69.3052
-47.5223 -69.2818
-45.5416 -69.3034
-43.5647 -69.296
-41.5714 -69.2895
-39.5983 -69.2977
-37.6225 -69.3017
-35.6424 -69.3014
-33.6616 -69.2836
-31.6885 -69.2973
-29.7039 -69.304
-27.7157 -69.3104
-25.7412 -69.2926
-23.7601 -69.3022
-21.7589 -69.2866
-19.81 -69.3079
-17.8176 -69.3008
-15.8325 -69.3074
-13.866 -69.2953
-11.875 -69.303
-9.90587 -69.3113
-7.93528 -69.2924
-5.94283 -69.2966
-3.95681 -69.3093
-1.9842 -69.3007
-0.00354912 -69.3082
1.97904 -69.3104
3.96287 -69.304
5.93819 -69.3076
7.91758 -69.309
9.89669 -69.3058
11.8683 -69.2996
13.8637 -69.3019
15.8365 -69.2904
17.8231 -69.2969
19.8016 -69.3062
21.7813 -69.2905
23.7515 -69.3097
25.7516 -69.2992
27.712 -69.3078
29.6914 -69.312
31.6686 -69.3006
33.662 -69.2976
35.6476 -69.2921
37.6141 -69.3032
39.6046 -69.2887
41.5738 -69.3075
43.5619 -69.2964
45.5355 -69.2956
47.5178 -69.3055
49.4987 -69.3064
51.479 -69.3031
53.4611 -69.3055
55.4581 -69.2992
57.421 -69.304
59.41 -69.3029
61.3787 -69.2898
63.365 -69.2993
65.3511 -69.3034
67.3132 -69.302
69.3011 -69.296
71.2829 -69.2944
73.2533 -69.3005
75.2361 -69.3032
77.23 -69.2896
79.2063 -69.2802
81.1801 -69.2965
83.1692 -69.3011
85.1327 -69.2855
87.1118 -69.2908
89.0854 -69.3064
91.0769 -69.3011
93.0631 -69.3021
95.038 -69.3081
97.0124 -69.308
-99.0012 -67.3197
-97.0334 -67.3212
-95.0326 -67.3316
-93.0631 -67.3242
-91.0747 -67.3065
-89.0918 -67.3133
-87.1163 -67.319
-85.1413 -67.3219
-83.1591 -67.3083
-81.1727 -67.3237
-79.2094 -67.3153
-77.2172 -67.3275
-75.2454 -67.3217
-73.2562 -67.3152
-71.2713 -67.3159
-69.3017 -67.3152
-67.3332 -67.3195
-65.337 -67.3273
-63.3564 -67.3211
-61.3922 -67.3353
-59.4013 -67.3199
-57.4123 -67.3158
-55.438 -67.3135
-53.4511 -67.3246
-51.4819 -67.3218
-49.5179 -67.325
-47.5289 -67.3067
-45.561 -67.3248
-43.5662 -67.3129
-41.5758 -67.3123
-39.5984 -67.3209
-37.6375 -67.3215
-35.65 -67.3102
-33.6664 -67.3261
-31.6898 -67.3118
-29.7139 -67.3157
-27.7197 -67.3118
-25.7352 -67.3251
-23.7638 -67.3286
-21.7857 -67.3097
-19.8093 -67.3238
-17.8271 -67.3215
-15.8451 -67.3228
-13.8674 -67.3304
-11.8661 -67.3144
-9.90434 -67.3165
-7.92543 -67.3305
-5.95813 -67.3199
-3.95727 -67.3154
-1.97231 -67.3215
-0.00833458 -67.3255
1.98291 -67.3167
3.96128 -67.3255
5.95643 -67.3215
7.92309 -67.3237
9.90133 -67.3078
11.865 -67.3296
13.8611 -67.3207
15.84 -67.3226
17.8187 -67.3187
19.8033 -67.3217
21.7754 -67.3128
23.7555 -67.3167
25.7414 -67.3186
27.7263 -67.3181
29.6939 -67.3234
31.6879 -67.3227
33.6576 -67.3243
35.636 -67.3109
37.6251 -67.3169
39.6049 -67.3141
41.5766 -67.3203
43.5578 -67.3313
45.546 -67.3088
47.5148 -67.3189
49.5072 -67.3171
51.4743 -67.3183
53.4559 -67.3107
55.4373 -67.3223
57.4226 -67.3201
59.3907 -67.313
61.3864 -67.3284
63.3579 -67.3182
65.3311 -67.3171
67.3203 -67.3263
69.3095 -67.3162
71.2761 -67.3313
73.2621 -67.3185
75.2324 -67.3293
77.2215 -67.3133
79.1925 -67.338
81.1892 -67.3263
83.1648 -67.3258
85.1366 -67.3227
87.1152 -67.3181
89.0941 -67.3197
91.0684 -67.3301
93.0579 -67.3213
95.0462 -67.3222
97.0243 -67.3121
-99.0033 -65.3468
-97.0287 -65.3493
-95.0343 -65.3477
-93.0574 -65.3371
-91.0849 -65.337
-89.0963 -65.35
-87.1153 -65.3318
-85.1372 -65.3447
-83.1588 -65.3503
-81.1845 -65.3274
-79.2014 -65.346
-77.2204 -65.3499
-75.243 -65.3396
-73.2591 -65.3438
-71.2817 -65.3458
-69.3055 -65.3484
-67.3294 -65.3489
-65.3382 -65.3408
-63.3698 -65.3385