ITEM: TIMESTEP
100000
ITEM: NUMBER OF ATOMS
10000
ITEM: BOX BOUNDS pp pp pp
-5.0000000000000000e+01 5.0000000000000000e+01
-5.0000000000000000e+01 5.0000000000000000e+01
-1.0000000000000000e+01 1.0000000000000000e+01
ITEM: ATOMS x y
49.1428 -49.7915
-48.974 -49.8587
-47.8818 49.6904
-46.97 -49.7903
-46.0919 49.7084
-45.1673 -49.8786
-44.2521 -49.3558
-43.371 -49.8574
-42.3805 -49.2077
-41.5824 -49.7984
-40.4568 -49.233
-39.5342 -49.7861
-38.6664 -49.2877
-37.661 -49.7677
-36.7429 -49.3567
-35.7041 -48.9104
-34.8643 -49.4711
-33.9181 -48.9735
-32.9979 -49.4297
-31.9936 -49.5826
-30.4652 49.6202
-29.9484 -49.4414
-28.8742 -49.6752
-28.3721 49.2925
-25.5513 -49.6903
-25.0863 49.4139
-24.0196 49.4741
-23.3332 -49.7055
-23.0442 49.2189
-21.7414 49.166
-20.6604 49.2289
-19.6655 49.3271
-18.6775 49.2011
-17.6369 49.2182
-16.63 49.1966
-15.6265 49.215
-14.5491 49.0633
-12.9581 49.8032
-12.4834 48.9081
-11.9404 47.9649
-10.748 48.0887
-10.1728 47.1597
-9.71166 48.1668
-8.69595 48.0355
-7.51011 48.1552
-5.48552 47.9619
-4.45043 47.9951
-3.75567 48.8524
-2.09628 47.8561
0.144155 49.7471
0.519247 48.8046
1.16017 49.6092
2.25679 49.6272
3.27605 49.7304
3.72401 48.6449
4.28445 49.4885
5.61144 49.4318
7.53598 48.484
7.68276 49.491
8.51262 -49.8984
9.43988 49.5624
10.4178 48.9051
11.2459 49.465
12.2578 48.8687
14.0244 48.7194
14.8925 48.1752
15.8393 48.677
16.8029 48.0558
17.7732 48.5376
18.7179 49.1062
19.602 48.5421
20.3866 47.8554
21.3682 48.2798
22.3315 48.7608
23.2479 48.279
24.0351 48.9051
24.9582 48.4203
25.9362 -49.9818
26.8219 49.3913
28.6812 49.3163
29.6773 49.8087
30.6232 -49.7514
31.5555 49.8768
32.3974 49.2322
33.4249 49.6986
34.1883 48.1628
35.2363 48.6553
36.0783 48.1161
37.1687 48.7682
38.0666 49.2681
38.9135 48.7394
39.9222 49.3133
40.8418 48.8368
41.8014 49.2008
42.6868 48.7298
43.5671 -49.7064
44.6105 -49.3269
45.5001 -49.8852
47.2688 -49.8612
48.2154 49.4601
-49.941 -49.311
-48.7918 -48.7056
-47.9251 -49.2187
-46.9619 -48.7717
-46.0282 -49.269
-46.0932 -48.264
-45.1302 -48.7918
-44.1909 -48.346
-43.2743 -48.7501
-41.4464 -48.7913
-40.4027 -48.2412
-39.5311 -48.7518
-38.6063 -48.2274
-37.7111 -48.7427
-36.772 -48.1999
-35.7302 -47.8685
-34.8215 -48.4192
-34.0026 -47.7855
-33.0764 -48.3486
-31.4734 -48.4639
-30.3544 -48.5332
-29.3064 -48.6421
-27.8582 -49.652
-26.6963 -49.7021
-26.1506 -48.8177
-24.9973 -48.7789
-24.5464 -49.6757
-23.9286 -48.8768
-22.3143 -49.8249
-21.3092 -49.9246
-20.3191 -49.813
-19.1844 -49.7642
-18.1817 -49.8863
-17.1606 -49.8528
-16.0466 -49.8579
-15.0001 -49.947
-13.9691 49.9044
-12.2394 -49.1066
-11.8636 49.9514
-11.3992 49.0193
-10.2948 49.0196
-9.12126 48.9903
-8.5673 49.9068
-8.08168 48.9854
-5.87351 48.9376
-5.33031 49.8581
-4.78498 48.9799
-3.16556 49.7124
-2.66262 48.6802
-1.11912 49.6218
0.612275 -49.3462
1.25539 -48.5247
1.81564 -49.4756
2.80898 -49.3568
3.92211 -49.4098
4.93891 -49.7485
5.83435 -49.2708
6.74531 49.0884
6.69416 -49.9122
7.59252 -49.4569
9.41713 -49.4431
10.3638 49.9727
12.2147 49.8852
13.1358 49.373
14.0759 49.8027
14.9627 49.2124
15.9949 49.7427
16.8275 49.1939
17.7497 49.5701
18.6536 -49.7851
19.547 49.659
20.5617 48.8949
21.4259 49.4471
22.334 -49.9551
23.1876 49.449
24.1018 -49.8779
25.0591 49.4678
26.8342 -49.4663
27.6809 49.9062
28.6255 -49.6523
29.6804 -49.1807
31.5349 -49.0799
32.5103 -49.7453
33.4518 -49.1815
34.32 -49.7652
34.2638 49.1596
35.1533 49.6623
36.2261 49.1952
37.1771 49.7741
38.1403 -49.7399
39.013 49.7529
39.939 -49.678
40.9322 49.852
41.8133 -49.682
42.713 49.7454
43.7942 -48.6668
46.4223 -49.3176
47.3611 -48.7091
48.2285 -49.3172
49.1481 -48.7649
49.2589 -47.7517
-49.7171 -48.2777
-48.7995 -47.6516
-47.9252 -48.1815
-46.9614 -47.7728
-46.0665 -47.1184
-45.1304 -47.6674
-44.0791 -47.2764
-43.1603 -47.713
-42.2217 -48.1605
-41.3433 -47.7016
-39.53 -47.7072
-38.6169 -47.2229
-37.6995 -47.7266
-36.739 -47.1852
-35.7228 -46.6725
-34.8735 -47.2953
-33.7195 -46.6479
-32.983 -47.3251
-30.8872 -47.4999
-29.8371 -47.6843
-31.3713 -46.5427
-28.2825 -48.6779
-27.1577 -48.8269
-26.6802 -47.8534
-25.6268 -47.9701
-24.5316 -47.8663
-23.4889 -47.8455
-22.881 -48.8196
-21.8293 -48.7852
-20.826 -48.9183
-19.7408 -48.8374
-18.7247 -48.8702
-17.6832 -48.9404
-16.6065 -49.0173
-15.4454 -49.0217
-14.388 -49.0619
-13.3132 -49.112
-11.1397 -49.1499
-10.833 49.8676
-10.088 -49.1396
-9.67502 49.9482
-8.03856 -49.147
-6.95268 48.9831
-6.44887 49.8549
-4.83595 -49.266
-4.29479 49.851
-3.78969 -49.2881
-2.17182 49.644
-1.64534 -49.5062
-0.466012 -49.4082
0.0238315 -48.5363
2.26898 -48.5146
3.40242 -48.5407
4.70309 -48.7823
4.74325 -47.7567
5.63746 -48.2487
6.72929 -48.7932
7.59748 -48.2944
8.52324 -48.8874
10.3133 -48.8848
11.3188 -49.534
12.2074 -49.0131
13.071 -49.5921
14.1283 -49.1013
15.043 -49.722
15.9173 -49.2204
16.9707 -49.8154
17.7855 -49.2168
18.6809 -48.7167
19.5752 -49.331
20.5229 49.9542
21.403 -49.5105
22.2102 -48.8537
23.1568 -49.3407
24.1499 -48.7847
25.0798 -49.3206
26.0113 -48.8759
27.7862 -49.047
28.7056 -48.6269
29.7115 -48.1712
30.6119 -48.6407
31.5353 -48.0761
32.5311 -48.6935
33.3905 -48.1434
35.2817 -49.35
36.2583 -49.6383
36.3425 -48.5528
37.1797 -49.1224
38.1621 -48.6908
39.0268 -49.1831
39.8998 -48.5561
40.8184 -49.1239
41.7873 -48.6659
42.6889 -49.2215
44.6783 -48.185
45.5315 -48.818
46.473 -48.2145
48.2955 -48.2481
48.3548 -47.2427
49.3938 -46.6721
-49.6955 -47.0805
-48.8003 -46.6438
-47.8212 -47.1438
-46.9839 -46.6001
-45.9636 -46.0984
-45.0674 -46.6501
-44.0984 -46.16
-43.2093 -46.6965
-42.2433 -47.1271
-41.3759 -46.6178
-40.4318 -47.1421
-39.4695 -46.6492
-37.6277 -46.6484
-36.711 -46.1411
-35.7895 -45.674
-34.8798 -46.1029
-34.0156 -45.6213
-31.9642 -47.3812
-30.8376 -45.6823
-29.7881 -45.8128
-30.2673 -46.6964
-28.7858 -47.7273
-27.6837 -47.8677
-27.174 -46.9501
-26.1779 -46.989
-25.1788 -47.064
-24.1086 -46.9483
-22.4412 -47.9249
-21.3492 -47.9191
-20.3466 -47.9108
-19.2486 -47.9126
-18.0714 -47.9535
-17.0262 -48.0504
-16.0069 -48.1773
-14.9207 -48.1424
-13.9058 -48.184
-12.8062 -48.1609
-11.7164 -48.2576
-10.5572 -48.2171
-9.55177 -48.173
-9.08739 -49.1031
-8.5395 -48.2469
-7.46304 49.8817
-5.8313 -49.2187
-5.31079 -48.3396
-4.77692 -47.4561
-4.28961 -48.391
-3.23407 -48.4326
-2.69166 -49.3421
-0.989951 -48.5196
0.673115 -47.5476
2.77634 -47.6208
2.39894 -46.6359
3.77021 -47.3788
4.73396 -46.7051
5.7066 -47.2349
6.73826 -47.748
8.53021 -47.8792
9.4354 -48.4119
10.356 -47.8636
11.2843 -48.4586
12.1714 -48.0108
13.1063 -48.554
13.9962 -48.0434
14.9718 -48.5693
15.9281 -48.2143
16.9214 -48.7015
17.7745 -48.1744
18.7258 -47.7051
19.613 -48.2064
20.4527 -48.8677
21.2909 -48.1596
22.2994 -47.81
23.2185 -48.2995
24.1804 -47.7144
25.1558 -48.3232
26.0267 -47.8351
26.9237 -48.445
27.9327 -47.9671
28.8689 -47.527
29.7035 -46.9689
30.611 -47.6237
32.4569 -47.6719
33.4081 -46.9824
34.4404 -48.7126
35.3927 -48.1888
36.2592 -47.5234
37.2972 -48.119
38.1064 -47.5182
38.9846 -48.0989
40.0085 -47.5481
40.9267 -48.1078
41.8651 -47.6632
42.875 -48.0287
43.7932 -47.6022
45.5785 -47.6856
46.4563 -47.2084
47.3509 -47.6993
47.4773 -46.6907
49.3714 -45.5029
-49.7465 -46.0504
-48.8148 -45.6501
-47.9147 -46.0883
-47.0338 -45.5762
-46.1567 -45.0402
-45.0427 -45.5898
-44.1627 -45.0978
-43.1741 -45.5716
-42.3254 -46.0988
-41.2654 -45.6078
-40.4139 -46.1388
-39.3971 -45.5927
-38.5337 -46.221
-37.67 -45.6097
-36.7404 -45.067
-34.8669 -45.0891
-32.3111 -44.6956
-33.016 -45.678
-32.4107 -46.4825
-30.2648 -44.7325
-29.6176 -43.9399
-29.2477 -46.8342
-28.2214 -46.9174
-27.6972 -45.9794
-26.6556 -46.044
-25.5147 -46.0947
-24.523 -46.0288
-22.9674 -46.9777
-21.9518 -47.0229
-20.8571 -47.0082
-19.8282 -47.0406
-18.5977 -47.0862
-17.5508 -47.0832
-16.5065 -47.1463
-15.4539 -47.3007
-14.377 -47.2269
-13.3577 -47.3269
-12.1664 -47.2833
-11.1648 -47.3282
-10.0704 -47.2964
-8.92292 -47.3133
-7.89977 -47.3419
-6.87504 -49.2059
-6.39601 -48.2972
-5.82777 -47.4445
-4.21153 -46.5972
-3.77113 -47.5097
-2.59742 -47.6187
-1.53221 -47.6797
-0.52893 -47.554
1.74032 -47.6171
1.80223 -45.8118
2.83167 -45.728
3.79727 -46.3128
5.62689 -46.2349
6.58604 -46.7144
7.5946 -47.1641
8.54413 -46.7713
9.40275 -47.3552
10.3267 -46.8412
11.2261 -47.3853
12.1584 -47.0121
13.093 -47.5397
13.9875 -47.0485
14.8742 -47.5532
15.8555 -47.2026
16.7824 -47.6909
17.6317 -47.1096
18.5827 -46.6987
19.5639 -47.0402
20.4734 -47.5653
21.4302 -47.1633
22.3777 -46.7636
23.2654 -47.209
24.1426 -46.7126
25.1189 -47.2777
26.1374 -46.8186
26.9827 -47.3423
27.9083 -46.8564
28.791 -46.2839
30.6272 -46.4433
31.429 -47.0346
32.4342 -46.5724
34.3422 -46.4938
34.2869 -47.5257
35.3216 -47.0661
36.1249 -46.4688
37.1499 -47.0309
38.0661 -46.4794
39.0992 -47.0894
40.0369 -46.5046
40.9602 -47.1031
41.9747 -46.5972
42.9175 -47.0196
43.8191 -46.4846
44.692 -47.1071
45.5729 -46.5945
46.4737 -46.1123
48.526 -46.1133
48.4323 -45.1002
-49.7391 -45.0295
-48.798 -44.5345
-47.9057 -45.0892
-47.0383 -44.5332
-46.0116 -44.0242
-45.1096 -44.5322
-44.115 -44.0473
-43.174 -44.5679
-42.271 -45.0289
-41.3442 -44.5856
-40.41 -44.9836
-39.4965 -44.5379
-38.519 -44.989
-37.6274 -44.5473
-36.6451 -43.948
-35.8258 -44.6459
-34.8305 -44.0433
-33.4312 -44.6929
-31.8702 -45.5844
-31.3147 -44.7212
-30.7709 -43.853
-28.7311 -45.8342
-28.2125 -44.9565
-27.1165 -45.1115
-26.0051 -45.1603
-25.0004 -45.0915
-23.4574 -46.0884
-22.4142 -46.0414
-21.3566 -46.0893
-20.2514 -46.1312
-19.1107 -46.1854
-18.0998 -46.1618
-17.0036 -46.2109
-16.0044 -46.1963
-14.9117 -46.3129
-13.8238 -46.3391
-12.695 -46.3985
-11.6248 -46.4387
-10.5965 -46.4589
-9.47658 -46.4347
-8.39068 -46.3632
-7.36023 -46.4801
-7.46036 -48.2581
-6.84651 -47.377
-5.31286 -46.5582
-3.05795 -46.6964
-1.91831 -46.5837
-2.08083 -48.5179
-0.921634 -46.6303
1.29732 -46.7156
0.550427 -45.7661
1.18916 -44.9846
3.57374 -45.0551
4.66469 -45.696
5.53511 -45.1682
6.57956 -45.6799
7.57246 -46.1751
8.44728 -45.6603
9.43672 -46.2642
10.3439 -45.8053
11.1989 -46.3666
12.2787 -45.8706
13.1134 -46.4101
14.0718 -45.9576
15.0553 -46.5572
15.9455 -45.9263
16.8359 -46.4852
17.7132 -45.987
18.6527 -45.5079
19.5726 -45.9482
20.4157 -46.4994
21.4961 -46.1449
22.2471 -45.4719
23.194 -46.1982
24.0994 -45.6256
25.1695 -46.2745
26.0367 -45.6816
27.0506 -46.2737
27.8967 -45.6566
28.7868 -45.1579
29.6338 -45.6852
31.6211 -45.9735
32.4652 -45.3431
33.403 -45.9284
34.3446 -45.3933
35.2503 -45.9698
36.1098 -45.3638
37.1681 -45.9763
38.1332 -45.3778
38.9823 -46.0859
39.9543 -45.4557
41.0198 -46.0519
41.8216 -45.4168
42.7234 -45.9161
43.62 -45.4618
44.727 -46.0679
45.6457 -45.4865
46.5527 -44.922
47.4622 -45.5923
49.2233 -44.4437
-49.6703 -43.9411
-48.7383 -43.3873
-47.8788 -43.9364
-46.9101 -43.4124
-46.0146 -42.891
-45.0741 -43.5062
-44.1255 -42.9465
-43.2173 -43.5486
-42.2041 -44.0074
-41.3479 -43.4327
-40.4595 -43.9026
-39.529 -43.4971
-38.5457 -43.8347
-37.5806 -43.3319
-36.5772 -42.8686
-35.6609 -43.4011
-33.9452 -43.5535
-32.4768 -42.8084
-32.9447 -43.7087
-31.7635 -43.8142
-30.2278 -42.991
-29.1209 -42.9804
-29.2481 -44.9416
-27.5746 -44.1585
-26.5471 -44.2445
-25.4208 -44.1841
-23.9987 -45.0699
-23 -45.1109
-21.7997 -45.1556
-20.7922 -45.2559
-19.7634 -45.2626
-18.6448 -45.2728
-17.5206 -45.3278
-16.4999 -45.2183
-15.4575 -45.3601
-14.4152 -45.3866
-13.3511 -45.4492
-12.2377 -45.4757
-11.0185 -45.5428
-10.0191 -45.5693
-8.96371 -45.4734
-7.86297 -45.5168
-6.79332 -45.4989
-6.31268 -46.4671
-4.69695 -45.692
-3.51853 -45.6547
-2.50078 -45.75
-1.48771 -45.661
0.109307 -46.714
-0.48637 -45.6276
0.0951387 -44.7325
2.21311 -44.8181
3.71822 -43.9249
4.61118 -44.6301
5.67909 -44.1718
6.58059 -44.6505
7.6051 -45.1038
8.55428 -44.6702
9.40513 -45.2673
10.3349 -44.758
11.3171 -45.3725
12.2609 -44.85
13.1838 -45.2658
14.1015 -44.8357
15.0219 -45.482
16.0283 -44.9191
16.869 -45.4517
17.7728 -44.9444
18.6748 -44.5004
19.5784 -44.9087
20.5356 -45.4902
21.3473 -44.8864
22.3086 -44.4604
23.1782 -44.9305
24.1675 -44.5689
25.0854 -45.1945
26.089 -44.6503
26.9985 -45.2079
27.9098 -44.6521
29.8578 -44.6969
30.7036 -45.3603
31.5775 -44.7828
32.4625 -44.3259
33.4292 -44.8449
34.345 -44.3623
35.2343 -44.8326
36.3861 -44.2309
37.0955 -44.9368
38.1324 -44.3048
39.0693 -44.9663
39.9837 -44.3736
40.8795 -44.994
41.794 -44.3537
42.6843 -44.8917
43.722 -44.4588
44.6302 -45.0262
45.5509 -44.4936
47.505 -44.4954
48.3507 -43.9581
49.229 -43.3969
-49.8689 -42.9641
-48.6717 -42.2835
-47.7955 -42.9316
-46.9228 -42.3608
-45.9949 -41.8925
-45.0869 -42.3901
-44.2044 -41.9253
-43.2806 -42.3545
-42.2991 -42.9104
-41.3926 -42.4328
-40.4509 -42.8943
-39.4698 -42.3812
-38.5172 -42.8206
-37.6329 -42.2917
-36.6951 -41.7744
-35.7525 -42.2974
-34.7071 -42.904
-33.7564 -42.4566
-32.7623 -41.8143
-31.2742 -42.9214
-29.7193 -42.1073
-28.5927 -44.0051
-28.0876 -43.1377
-26.9707 -43.3398
-25.9674 -43.3101
-24.4054 -44.127
-23.4101 -44.0667
-22.4062 -44.2318
-21.2865 -44.2671
-20.2059 -44.3302
-19.1437 -44.3976
-17.9908 -44.3296
-16.9872 -44.3436
-15.8418 -44.4162
-14.8253 -44.4083
-13.8324 -44.5142
-12.7834 -44.6182
-11.4536 -44.6439
-10.4319 -44.6233
-9.41973 -44.5576
-8.32751 -44.5797
-7.29854 -44.6218
-6.1652 -44.6891
-5.69212 -43.7392
-5.77632 -45.6157
-3.68181 -43.7758
-3.03765 -44.6771
-2.02722 -44.7932
-0.998876 -44.7457
-0.498229 -43.8763
0.560224 -43.7899
1.55006 -44.0213
2.62013 -43.9042
4.77931 -43.6145
5.76187 -43.107
6.73508 -43.5921
7.59132 -44.1023
8.60953 -43.6801
9.53206 -44.1563
10.4652 -43.7423
11.3453 -44.2258
12.2196 -43.6971
13.0776 -44.2344
14.0381 -43.8059
15.0652 -44.4685
15.9062 -43.8701
16.9015 -44.3337
17.8446 -43.8809
18.7308 -43.4102
19.634 -43.854
20.485 -44.3837
21.4429 -43.8791
22.2941 -43.3617
23.2178 -43.9247
24.2958 -43.5802
25.1714 -44.1437
26.1394 -43.6507
27.0313 -44.1678
27.9528 -43.6001
28.8058 -44.1472
29.752 -43.6855
30.7213 -44.1831
31.6781 -43.6819
33.3469 -43.7536
34.313 -43.2246
35.3169 -43.8034
36.3029 -43.1293
37.2208 -43.6621
38.2276 -43.2889
39.0989 -43.8779
40.0069 -43.3584
40.9141 -43.8818
41.8694 -43.3172
42.7537 -43.873
43.784 -43.4335
44.6729 -43.9418
45.5697 -43.4194
46.5088 -43.9063
47.5211 -43.3962
48.3819 -42.8047
49.3172 -42.2957
-49.6504 -41.9894
-47.7731 -41.8281
-46.8846 -41.2107
-45.9155 -40.8402
-44.9773 -41.2374
-44.1424 -40.6926
-43.3878 -41.3509
-42.355 -41.8797
-41.4295 -41.3724
-40.4293 -41.8962
-39.4466 -41.381
-38.4788 -41.7337
-37.5235 -41.1987
-36.6251 -40.7485
-35.6896 -41.2806
-34.7614 -40.7553
-34.7566 -41.8241
-33.7947 -41.3737
-31.7657 -42.0537
-30.7398 -42.0309
-30.1337 -41.0792
-28.6158 -42.1076
-27.5292 -42.218
-26.5125 -42.4039
-24.9276 -43.2713
-23.8603 -43.1154
-22.7968 -43.1931
-21.8096 -43.3995
-20.7952 -43.3617
-19.666 -43.3702
-18.5435 -43.4851
-17.5315 -43.3806
-16.4043 -43.5224
-15.3562 -43.5226
-14.2239 -43.5944
-13.1699 -43.6953
-12.1013 -43.8448
-10.9966 -43.7597
-9.97969 -43.6817
-8.84545 -43.6748
-7.80711 -43.7285
-6.73772 -43.7618
-6.19734 -42.8342
-5.16589 -44.6889
-4.15029 -44.6981
-3.53589 -41.9616
-2.6085 -43.7538
-2.03801 -42.9362
0.0409385 -42.8949
1.04584 -42.8262
2.01245 -43.0941
3.01878 -42.5234
4.00829 -42.9727
4.91373 -42.5683
5.799 -42.0316
7.70783 -43.0381
8.63478 -42.6158
9.60366 -43.0648
10.4362 -42.509
11.392 -43.1144
12.3077 -42.6799
13.198 -43.2167
14.0711 -42.6053
14.887 -43.1953
15.8409 -42.766
16.7485 -43.3396
17.6924 -42.8521
18.6089 -42.2218
19.6124 -42.7843
20.6167 -43.3247
21.4608 -42.7391
22.4102 -42.3149
23.2457 -42.8734
24.1999 -42.5025
25.1489 -43.0192
26.0729 -42.5863
27.0832 -43.1176
28.8439 -43.0869
28.9067 -42.0674
29.8819 -42.5114
30.8365 -43.1476
32.5449 -43.1579
33.4658 -42.6064
34.3647 -42.1702
35.3902 -42.7119
36.3341 -42.0876
37.1985 -42.6439
38.1979 -42.2717
39.1629 -42.7145
40.0235 -42.1098
40.9594 -42.889
41.961 -42.2714
42.8318 -42.8792
43.7651 -42.4032
44.724 -42.8959
45.6118 -42.3958
46.4885 -42.9083
47.4176 -42.3354
48.4916 -41.6387
49.4724 -41.2636
-48.7306 -41.2622
-47.8195 -40.8035
-46.7783 -40.1739
-45.918 -39.517
-44.9197 -40.0545
-43.9963 -39.6798
-43.1472 -40.2343
-42.2432 -40.7609
-41.3524 -40.2164
-40.5313 -40.8296
-39.4426 -40.2667
-38.5175 -40.719
-37.5297 -40.1366
-36.5619 -39.6834
-35.6656 -40.259
-34.6597 -39.7306
-33.8405 -40.3639
-32.2736 -40.9288
-31.6671 -40.1174
-31.2515 -41.1536
-29.1388 -41.2441
-28.1007 -41.1889
-27.0516 -41.3096
-25.4712 -42.2723
-24.4594 -42.2411
-23.4249 -42.2287
-22.3381 -42.249
-21.2166 -42.3307
-20.0681 -42.3982
-19.0599 -42.5726
-18.0423 -42.4858
-17.0367 -42.4965
-15.929 -42.6186
-14.6778 -42.6977
-13.5728 -42.7286
-12.5157 -42.8583
-11.5041 -42.9067
-10.4731 -42.8085
-9.41976 -42.8126
-8.2777 -42.8177
-7.23866 -42.8957
-6.26381 -41.0578
-5.20365 -40.9872
-4.68508 -43.7864
-4.09573 -42.8652
-4.53196 -41.8426
-3.03054 -42.8485
-1.0073 -42.9121
-1.59727 -43.8452
0.494148 -41.9902
2.08683 -42.0807
3.06283 -41.5271
3.98527 -41.9458
4.90521 -41.5375
6.77205 -41.451
6.76969 -42.5551
8.63356 -41.6047
9.56856 -41.9848
10.4543 -41.463
11.3772 -41.9565
12.3013 -41.5457
13.181 -42.1196
14.1658 -41.5868
15.0352 -42.1124
15.9252 -41.6575
16.814 -42.2368
17.7553 -41.6626
18.7369 -41.1945
19.6335 -41.7727
20.5468 -42.2922
21.4576 -41.7077
22.3654 -41.2568
23.3 -41.8478
24.2233 -41.4899
25.1927 -42.0144
26.1425 -41.4373
27.0105 -42.0607
28.0087 -42.5371
28.9172 -41.0627
29.8173 -41.5078
30.7974 -41.9812
31.7108 -42.4968
32.6408 -41.9996
34.4424 -41.1092
35.3439 -41.6659
36.3049 -41.0795
37.2451 -41.5768
38.2058 -41.2294
39.0998 -41.7072
40.1177 -41.0444
40.9633 -41.7671
41.834 -41.2606
42.8193 -41.7194
43.7923 -41.3659
44.7471 -41.8861
45.6147 -41.3595
46.555 -41.7969
47.4996 -41.2087
48.3938 -40.6475
49.3689 -40.2384
-49.6233 -40.7957
-48.748 -40.1831
-47.6629 -39.6371
-46.8208 -38.9946
-45.9411 -38.5068
-44.9976 -39.0485
-43.1483 -39.0944
-42.2223 -39.6904
-41.2335 -39.1625
-40.3653 -39.7961
-39.3682 -39.2334
-38.4754 -39.7001
-37.4004 -39.1443
-36.5184 -38.6697
-35.5711 -39.1862
-34.694 -38.6187
-33.8077 -38.1514
-33.6861 -39.2522
-32.8086 -39.9932
-29.5957 -40.2315
-30.144 -39.2954
-28.4531 -40.1513
-27.4509 -40.2837
-26.0374 -41.1819
-24.9968 -41.3019
-23.9283 -41.3528
-22.7822 -41.3273
-21.6755 -41.3359
-20.6457 -41.4875
-19.5817 -41.4125
-18.5607 -41.6138
-17.5133 -41.5966
-16.4129 -41.7022
-15.2532 -41.8791
-14.2207 -41.8007
-13.2479 -41.5894
-12.0484 -41.9148
-11.0552 -41.7971
-9.87209 -41.9145
-8.85151 -41.968
-6.78944 -42.0034
-7.29026 -40.9908
-5.75853 -41.9443
-5.54156 -39.9984
-5.19692 -42.8468
-2.58966 -41.5982
-1.56168 -42.0178
-1.6767 -41.0344
-0.678946 -41.4922
0.367116 -40.9954
1.34583 -41.4078
2.23855 -40.9506
3.95434 -40.9429
4.92622 -40.4026
5.82 -40.9236
7.65261 -41.9894
8.64313 -40.4899
9.531 -40.9529
10.3875 -40.4329
11.2808 -40.8953
12.2035 -40.4163
13.215 -41.1175
14.097 -40.5128
15.1068 -41.0581
15.9894 -40.5859
16.8852 -41.1836
17.7898 -40.5762
18.7567 -40.125
19.6344 -40.6997
20.4972 -41.2592
21.4575 -40.6647
22.3933 -40.2625
23.2948 -40.8337
24.2301 -40.4838
25.1533 -40.9076
26.1338 -40.3958
27.0958 -40.9645
27.9773 -41.4601
28.9394 -39.8992
29.8232 -40.4471
30.8018 -40.9849
31.7442 -41.3937
33.5056 -41.5094
34.518 -40.0405
35.362 -40.6334
36.2896 -40.0234
37.1701 -40.5485
38.2018 -40.1344
39.1045 -40.684
40.1091 -40.0251
41.0123 -40.6003
41.9453 -40.0571
42.6931 -40.7295
43.7874 -40.335
44.6703 -40.8363
45.5702 -40.3272
46.4663 -40.793
47.4299 -40.1532
48.4424 -39.6432
49.4278 -39.0813
-49.6617 -39.7207
-48.7269 -39.0942
-47.7632 -38.5556
-46.9283 -38.0006
-44.988 -37.8839
-44.0737 -38.5155
-43.1057 -37.9994
-42.2779 -38.5993
-41.1912 -38.1608
-40.2909 -38.7077
-39.2803 -38.1354
-38.3298 -38.6482
-37.4692 -37.9916
-36.516 -37.5586
-35.6728 -38.1129
-34.6878 -37.6106
-33.2709 -37.3049
-32.2607 -39.133
-31.2088 -39.1752
-30.5901 -40.1867
-29.1118 -39.2728
-27.9437 -39.2496
-26.4374 -40.2545
-25.4276 -40.1872
-24.4324 -40.3651
-23.4148 -40.5029
-22.352 -40.4004
-21.1933 -40.3703
-20.1663 -40.5723
-19.0306 -40.5534
-18.0241 -40.7063
-16.9787 -40.7602
-15.9125 -40.8322
-14.8609 -40.8479
-13.8331 -40.7167
-12.5822 -40.8399
-11.5644 -40.9083
-10.4348 -40.9884
-8.38117 -41.0156
-7.81799 -41.8515
-7.71855 -40.0849
-7.18609 -39.1976
-6.62565 -40.1087
-5.23124 -38.6383
-4.5118 -40.2349
-3.66197 -40.9206
-2.76961 -40.4736
-1.76063 -40.013
-0.647984 -40.4527
0.25797 -39.9136
1.18271 -40.3955
3.13949 -40.3323
4.04274 -39.9036
5.79857 -39.9127
6.69997 -40.4086
7.69264 -40.9335
8.62248 -39.2879
9.46977 -39.9272
10.3456 -39.4322
11.2838 -39.862
11.3 -38.8575
13.1265 -39.9768
14.1426 -39.4139
15.0553 -40.041
15.9109 -39.5324
16.8222 -40.0282
17.6832 -39.4923
18.6458 -39.003
19.5813 -39.5283
20.4358 -40.0978
21.3996 -39.668
22.403 -39.2376
23.2949 -39.8143
24.2074 -39.3416
25.1034 -39.8716
26.0934 -39.3132
27.1475 -39.9521
28.0468 -40.4339
29.8513 -39.4305
30.701 -39.9652
31.6836 -40.3833
32.6758 -40.9325
33.5935 -40.4545
34.5193 -38.9242
35.411 -39.438
36.2868 -38.9488
37.2157 -39.4988
38.2206 -39.1327
39.1706 -39.6417
40.1704 -39.0308
41.0511 -39.53
41.9313 -39.0475
42.9225 -39.7562
43.7446 -39.1779
44.6672 -39.8278
45.55 -39.2709
46.5021 -39.7582
47.5315 -39.1506
48.4229 -38.616
49.3575 -38.055
-49.6421 -38.6857
-48.6736 -37.9787
-47.8173 -37.4366
-46.8751 -36.989
-45.9505 -37.4927
-43.9974 -37.5042
-43.1368 -36.9776
-42.133 -37.5165
-41.2595 -37.0215
-40.364 -37.5932
-39.3592 -37.1119
-38.4363 -37.486
-37.4538 -36.9167
-36.5496 -36.4852
-35.5906 -37.1248
-34.7436 -36.5652
-32.6651 -36.348
-32.8017 -38.185
-31.7162 -38.265
-29.643 -38.3075
-28.5283 -38.3782
-26.9008 -39.2111
-25.8895 -39.282
-24.8279 -39.3754
-23.7417 -39.4289
-22.7389 -39.4616
-22.19 -38.6007
-21.6356 -39.4719
-20.5544 -39.4503
-19.5595 -39.6933
-18.4935 -39.6275
-17.4367 -39.6866
-16.397 -39.8693
-15.3503 -39.9612
-14.2011 -39.7691
-13.1815 -39.8723
-12.0622 -39.9794
-9.85015 -39.9972
-9.37367 -40.9321
-8.81625 -40.0902
-8.33066 -39.202
-7.73789 -38.3218
-6.12883 -39.0953
-4.32618 -38.1756
-3.51249 -39.6993
-3.37965 -38.7122
-2.56153 -39.3755
-1.44982 -38.8623
-0.553114 -39.3148
0.400194 -38.8745
1.26285 -39.4013
2.16799 -39.8546
3.06964 -39.3085
5.87476 -38.8955
6.79922 -39.309
7.68932 -39.8137
8.62952 -38.2927
9.52482 -38.7988
10.4371 -38.2677
12.2176 -38.2731
13.218 -38.8634
12.2616 -39.371
14.1016 -38.3825
15.0478 -38.9429
15.9856 -38.3795
16.8013 -38.9612
17.6831 -38.4361
18.6569 -37.983
19.6246 -38.4855
20.5158 -39.0859
21.6111 -38.5588
22.5848 -38.0943
23.3229 -38.8217
24.2434 -38.249
25.1925 -38.777
26.1179 -38.294
26.9948 -38.8696
28.0038 -39.3495
28.9354 -38.8304
30.7245 -38.918
31.6363 -39.3589
32.6361 -39.8709
33.6282 -39.3896
34.4763 -37.8548
35.4293 -38.3984
36.4896 -37.9285
37.3515 -38.4902
38.2362 -38.0251
39.239 -38.638
40.0485 -38.0082
41.0255 -38.5278
42.0247 -37.9319
42.8615 -38.6705
43.8364 -38.1899
44.7044 -38.7418
45.6064 -38.1864
46.599 -38.6281
47.4851 -38.1258
48.3031 -37.5288
49.3883 -37.0534
-49.7069 -37.5964
-48.7179 -36.9344
-47.9032 -36.3553
-46.0082 -36.4576
-45.0459 -36.8204
-44.0945 -36.4605
-43.0671 -35.9136
-42.1954 -36.5014
-41.1917 -35.9384
-40.3626 -36.5478
-39.3048 -36.0751
-38.3575 -36.4598
-37.5117 -35.8963
-36.6072 -35.3658
-35.552 -35.9601
-34.5205 -35.5084
-33.7281 -36.4052
-31.587 -36.3219
-32.2143 -37.2853
-30.6438 -38.3109
-29.1634 -37.4157
-27.4529 -38.3614
-26.4058 -38.2463
-25.2666 -38.4708
-24.2374 -38.4788
-23.2142 -38.5354
-22.5162 -37.6272
-21.102 -38.5525
-20.47 -37.5386
-20.0426 -38.5682
-18.8585 -38.696
-17.8526 -38.7133
-16.7587 -38.868
-15.7273 -38.9807
-14.5752 -38.84
-13.585 -38.9326
-12.5187 -39.0359
-10.9984 -40.0298
-11.4897 -39.1098
-10.407 -39.1299
-9.35588 -39.0975
-8.75355 -38.2276
-6.42162 -38.097
-5.45853 -37.5023
-4.38031 -39.1793
-3.3818 -37.6897
-2.40265 -38.3436
-1.52067 -37.7855
-0.54342 -38.2745
0.361274 -37.8129
3.06313 -38.2863
4.01878 -38.8889
4.95156 -39.2709
4.80369 -38.2683
5.80986 -37.6413
7.6379 -38.7515
7.69035 -37.7499
9.55614 -37.7845
10.5063 -37.2555
11.3592 -37.7847
12.2136 -37.2703
13.1272 -37.7819
14.2111 -37.3225
15.0211 -37.9378
15.9309 -37.3674
16.8528 -37.8725
17.7738 -37.4347
18.814 -36.9452
19.7065 -37.4733
20.6572 -38.0857
21.5359 -37.5661
22.4978 -37.0125
23.4382 -37.5671
24.3174 -37.0282
25.1102 -37.6458
26.094 -37.2415
27.0046 -37.7865
27.8741 -38.2877
28.7969 -37.817
29.8167 -38.3657
31.6091 -38.3159
32.5896 -38.7676
33.4558 -38.2349
34.5576 -36.7961
35.3823 -37.3923
36.4899 -36.6756
37.4432 -37.3466
38.3596 -36.8307
39.2203 -37.3837
40.1228 -36.9093
41.0777 -37.5179
41.9752 -36.8345
42.9073 -37.4542
43.8704 -37.1899
44.7194 -37.7046
45.5636 -37.1774
46.4694 -37.6003
47.3805 -37.1108
48.4295 -36.5138
49.3615 -35.9851
-49.6297 -36.528
-48.7959 -35.8671
-46.8669 -35.8679
-45.9625 -35.2757
-44.9867 -35.7738
-43.966 -35.4165
-43.0332 -34.8623
-42.0877 -35.4716
-41.2297 -34.9408
-40.182 -35.4948
-39.2615 -34.9326
-38.4005 -35.4505
-37.5308 -34.8885
-36.5897 -34.2587
-35.6713 -34.9426
-33.7441 -34.17
-33.4384 -35.4064
-30.5909 -36.4316
-31.212 -37.3745
-30.1707 -37.4131
-28.157 -37.4249
-27.0459 -37.4343
-25.89 -37.3669
-24.5861 -37.5494
-23.5374 -37.5405
-23.1349 -36.6277
-22.0233 -36.6943
-21.4866 -37.5826
-20.9916 -36.6041
-19.3978 -37.5961
-18.2115 -37.7614
-17.2017 -37.8977
-16.0789 -37.813
-15.0535 -37.8981
-14.0056 -38.0111
-13.0071 -37.9883
-11.9327 -38.1895
-10.9284 -38.2174
-9.91348 -38.2004
-9.30651 -37.4022
-8.23885 -37.0288
-7.26451 -37.4136
-6.35554 -36.9409
-5.42067 -36.4668
-4.51022 -37.1433
-3.59141 -36.5554
-2.4378 -37.3475
-1.55461 -36.6881
-0.649356 -37.2815
2.18052 -38.8495
2.10399 -37.7929
3.05515 -37.1161
3.94954 -37.7221
4.9118 -37.1876
6.77265 -37.1647
6.69456 -38.2857
7.79163 -36.7458
8.70239 -37.2539
9.56546 -36.74
11.3071 -36.672
12.3002 -36.1774
13.2741 -36.7783
14.1798 -36.3201
15.0608 -36.7837
15.9526 -36.2721
16.8876 -36.8704
17.8043 -36.4379
18.6938 -35.938
19.7051 -36.4631
20.5765 -36.9543
21.4774 -36.5109
22.3594 -35.9941
23.3764 -36.5228
24.4156 -35.9911
25.2337 -36.5766
26.0994 -36.0413
26.9831 -36.7073
27.8333 -37.2227
29.7309 -37.3016
30.6965 -37.8715
31.6524 -37.3117
32.5716 -37.7655
33.6093 -37.2427
34.5426 -35.8057
35.5234 -36.3727
36.304 -35.685
37.4645 -36.1567
38.3916 -35.6893
39.2265 -36.2901
40.177 -35.819
41.0567 -36.3529
42.0721 -35.8425
43.0117 -36.4255
43.8608 -35.8415
44.7918 -36.5113
45.687 -35.9423
46.5186 -36.5975
47.5223 -36.0201
48.4374 -35.4938
49.4101 -34.9441
-49.6826 -35.3851
-48.7962 -34.869
-47.7595 -35.3457
-46.8743 -34.8353
-44.8743 -34.7624
-43.9352 -34.2822
-43.0283 -33.8047
-42.0332 -34.3219
-41.1405 -33.8665
-40.2695 -34.4438
-39.3412 -33.9051
-38.4071 -34.4114
-37.4975 -33.8313
-37.5245 -32.7508
-35.5765 -33.6676
-34.75 -34.3635
-32.4398 -35.2938
-31.1135 -35.4351
-29.5943 -36.4068
-28.9871 -35.4287
-28.5832 -36.4906
-27.5956 -36.5976
-26.4722 -36.5492
-25.2497 -36.5682
-24.1772 -36.5897
-23.6815 -35.6122
-22.5278 -35.6372
-21.4764 -35.7414
-19.9989 -36.6599
-18.6815 -36.8445
-17.6622 -36.8492
-16.6701 -36.9927
-15.6619 -36.913
-14.5716 -37.0367
-13.4717 -37.0843
-12.4577 -37.1362
-11.3495 -37.2998
-10.8811 -36.3732
-10.3168 -37.2622
-9.05458 -36.4389
-8.13959 -35.8931
-7.23491 -36.3985
-6.28806 -35.9449
-5.36308 -35.3914
-4.5199 -35.9849
-3.44873 -35.5559
-2.58581 -36.2033
-1.74891 -35.6537
0.263924 -36.6653
1.24132 -38.3212
1.22859 -37.2157
2.11721 -36.7135
4.00985 -36.7082
4.90641 -36.1257
5.79112 -36.64
6.67555 -36.1301
8.64889 -36.1876
9.54338 -35.6894
10.4277 -36.1965
11.4384 -35.5888
12.351 -35.1513
13.2826 -35.722
14.0578 -35.085
15.0681 -35.741
15.9106 -35.1601
16.8362 -35.6636
17.8246 -35.3553
19.6335 -35.4051
20.5429 -34.8577
20.5903 -35.8705
21.5067 -35.433
22.4941 -35.0007
23.3538 -35.513
24.31 -34.9837
25.2652 -35.4169
27.1009 -35.5175
27.9491 -36.1527
28.8514 -36.8029
29.7588 -36.2662
30.7702 -36.836
31.7276 -36.2782
32.7047 -36.7623
33.5575 -36.2149
34.5361 -34.6946
35.4023 -35.2239
36.4078 -34.5594
37.2925 -35.0621
38.2275 -34.704
39.2898 -35.22
40.2046 -34.6523
41.1943 -35.3616
42.1438 -34.8307
43.0298 -35.2997
44.0361 -34.7019
44.8791 -35.3375
45.7157 -34.7898
46.6729 -35.428
47.5921 -34.9611
48.4755 -34.4284
49.3104 -33.8036
-49.7065 -34.3433
-48.8523 -33.8297
-47.808 -34.2774
-46.8318 -33.7696
-45.8756 -34.2649
-44.8684 -33.7567
-43.9981 -33.2201
-42.158 -33.3135
-41.2517 -32.7982
-40.217 -33.3979
-39.3913 -32.7952
-38.413 -33.3885
-38.4671 -32.3541
-35.7452 -32.6667
-34.4226 -33.2895
-32.6325 -34.2468
-31.6933 -34.5866
-30.6456 -34.5066
-30.1078 -35.4142
-29.4311 -34.5157
-28.3564 -34.6363
-27.9306 -35.571
-26.8971 -35.5455
-25.7112 -35.5378
-24.6843 -35.594
-24.0877 -34.7024
-22.977 -34.7034
-21.9718 -34.7139
-20.4213 -35.7432
-19.2573 -35.9215
-18.127 -35.9157
-17.1117 -35.9569
-16.1077 -36.021
-15.0576 -36.1113
-13.9271 -36.0964
-12.917 -36.2067
-11.86 -36.1816
-10.9444 -35.3783
-9.94467 -35.9693
-9.07226 -35.3408
-8.13561 -34.8679
-7.23318 -35.3749
-6.24295 -34.8508
-5.30515 -34.3754
-4.40653 -34.9174
-3.4115 -34.4714
-2.56666 -35.031
-1.58016 -34.6213
-0.662537 -36.1617
0.303052 -35.5734
1.16666 -36.2134
2.07061 -35.6298
3.01116 -36.1078
3.94139 -35.6115
5.79072 -35.6038
6.6739 -35.1131
7.7748 -35.6865
8.64568 -35.1
9.57412 -34.641
10.4148 -35.193
11.3676 -34.563
13.1646 -34.5617
14.0888 -34.0682
15.079 -34.6035
16.0166 -34.1293
16.8656 -34.6633
17.842 -34.1852
18.7106 -34.8779
19.5942 -34.3454
20.6387 -33.8417
21.504 -34.3609
22.4613 -33.9258
23.3575 -34.4399
25.2417 -34.3864
26.1319 -34.8763
27.0696 -34.5013
28.0154 -35.0901
28.9295 -35.6794
29.8539 -35.258
30.7395 -35.8272
31.7459 -35.2578
32.7046 -35.6945
33.6314 -35.2105
34.5901 -33.5666
35.4004 -34.1851
36.4574 -33.5258
37.3255 -34.0582
38.2603 -33.7079
39.1578 -34.2172
40.1611 -33.557
41.0783 -34.1373
42.0525 -33.6698
42.9555 -34.1789
43.9032 -33.6356
44.8191 -34.0848
45.7984 -33.7493
46.6766 -34.4251
47.4916 -33.7153
48.4311 -33.2973
49.3311 -32.7117
-49.8139 -33.2835
-48.8313 -32.7712
-47.8685 -33.1553
-46.8382 -32.6421
-45.9172 -33.1963
-45.0067 -32.7223
-44.0569 -32.1606
-43.0332 -32.7869
-42.1782 -32.2076
-41.2752 -31.7006
-40.3976 -32.2827
-39.3383 -31.7642
-37.5693 -31.7576
-36.6339 -33.2287
-34.787 -32.3517
-33.261 -33.236
-32.2621 -33.284
-31.1784 -33.5993
-29.8953 -33.5609
-28.8496 -33.6768
-27.8491 -33.7389
-27.3299 -34.5995
-26.2341 -34.6409
-25.1117 -34.6695