ITEM: TIMESTEP
100000
ITEM: NUMBER OF ATOMS
10000
ITEM: BOX BOUNDS pp pp pp
-9.9000000000000000e+01 9.9000000000000000e+01
-9.9000000000000000e+01 9.9000000000000000e+01
-1.9800000000000001e+01 1.9800000000000001e+01
ITEM: ATOMS x y
-76.8347 -98.6821
-94.0838 80.196
78.5345 -96.9042
-69.9739 -97.1699
-95.5876 -83.1348
-77.8703 -81.6063
96.6911 85.574
-66.3208 -97.8769
-75.3837 -77.2132
-82.7614 94.3247
-42.9 95.9058
-93.3447 87.5053
-60.7056 -98.4907
-80.9793 -95.0957
-79.9657 86.4887
-80.193 90.1454
-51.1713 98.333
-73.538 -98.2901
-54.7489 -86.7963
-47.7394 93.1191
-75.3757 87.7138
-49.963 80.2488
-57.4492 84.1075
-45.9482 77.029
-59.584 88.2136
-64.2124 -92.0593
-57.8858 78.1506
-31.3489 79.582
-41.5422 88.2762
-55.6566 95.32
-58.4509 84.2402
-28.9452 97.8866
-49.651 -89.2888
-22.8388 -96.065
-35.8778 -98.5286
-30.2082 80.7188
-26.2725 -97.1378
-49.8104 75.4665
-27.172 98.7542
6.68291 81.3858
-14.3373 -88.8885
-6.42663 96.3574
-43.1544 -82.2778
-29.0961 -98.0119
-21.4994 87.3807
-35.0545 90.1339
-37.7224 73.4389
-13.5846 79.0813
-1.11812 91.538
-13.024 -88.6245
3.28779 -96.7207
-4.89159 -74.7214
2.62794 -85.4394
5.62781 -81.3265
-5.89953 79.2402
4.86172 94.8074
30.7266 -94.7438
19.3505 98.4794
0.930349 72.1984
18.7753 -85.3289
29.021 72.7271
33.9602 -98.0311
13.0328 90.0668
35.6254 94.1598
31.7228 -82.3219
23.1918 -58.7439
33.951 -75.8883
44.2149 -86.432
38.8725 90.09
45.834 -79.1267
27.084 -83.9346
40.3241 98.255
39.5223 85.9582
25.9964 89.2363
46.7289 97.7579
38.0279 95.2046
47.9329 76.4321
47.7675 82.8902
51.0895 92.0117
45.6376 89.0249
32.3785 83.434
50.1487 78.4741
58.9832 90.6624
36.8263 90.6348
57.6393 82.3991
63.5808 92.8755
61.7111 79.543
58.3536 -93.8949
88.6123 59.4699
77.709 -92.4967
87.6679 -84.1274
74.8242 -95.2271
47.0571 -87.6617
93.1228 -91.7077
97.357 -94.3548
85.9302 -98.1676
-94.5693 94.1031
86.3672 -95.0101
70.9703 76.131
-96.226 91.2901
74.2652 -81.867
93.6763 93.8141
-87.9569 92.4041
-61.9218 -97.5318
-92.6271 94.2864
-86.6722 96.1261
98.4115 95.3153
97.4521 87.9794
-78.8805 73.0884
89.309 88.8256
-79.0573 -66.5579
-87.9683 93.8362
-95.605 94.8258
-47.4939 98.9087
-91.9854 91.9747
-74.5434 98.4072
-58.0823 94.3172
-68.8278 97.6061
-75.8679 96.3832
-49.238 93.7256
-52.765 -78.9044
-37.7116 -92.514
-68.4681 95.1241
-40.7502 94.9591
-58.9756 -95.7887
-42.1287 92.2861
-66.311 81.5321
-31.6497 -91.2594
-57.7103 91.481
-34.9996 83.4065
-31.1091 73.6173
-37.8531 -84.3667
-36.917 90.5624
-30.2419 -93.5539
-51.7966 87.2855
-33.2953 84.8007
-36.28 93.1429
-32.3042 82.0344
-0.491874 87.036
-21.5129 -90.0979
-24.0286 -84.9504
-28.3136 86.97
-34.2194 97.8113
-6.24679 -87.0912
-15.3701 -98.5643
18.2427 -66.0996
-37.3602 -68.3979
-10.9069 86.8689
5.48045 87.8766
3.95854 -86.5362
-9.46855 -94.8669
11.7908 81.0548
-8.00007 92.5958
24.7147 -79.098
20.2196 -81.4497
18.6549 -74.558
-20.0484 -84.4503
-3.7019 77.4675
15.67 -84.5037
3.67062 -89.2002
21.792 78.9948
18.5789 -89.1556
1.71372 -92.2092
27.0136 -93.259
23.2477 96.3512
23.6851 -73.7192
11.0117 -98.9995
37.8425 89.2869
56.8778 91.0754
37.6455 92.4374
43.9937 93.1257
42.5217 -88.3998
45.3437 93.7498
45.2303 97.3979
31.0945 96.8092
59.0472 -91.8213
59.1257 79.9371
83.3023 88.8072
59.0916 77.4585
48.662 91.2596
77.0024 -93.3337
51.168 -72.1103
67.5086 86.6361
81.9602 -91.2422
55.6498 -89.8404
80.3365 -80.641
64.8646 -76.2955
79.0012 87.1393
69.4926 -84.2353
63.4114 -71.4171
-96.4485 -94.89
66.651 -76.6108
80.2471 -79.4268
-97.9498 -93.1495
72.5033 -92.6931
-97.5811 96.227
-78.7203 -85.8872
77.0824 -81.4917
-93.0681 -91.514
65.0378 85.9595
-86.2282 -81.604
-83.503 91.5026
-87.3027 -84.9469
-95.8331 84.3881
-86.1308 94.1652
-84.0498 93.9077
-84.1133 95.2354
-62.8926 -98.2251
-79.7344 -89.8474
-71.74 -78.9164
-92.5004 -88.1251
-55.1385 96.7
-58.1883 98.8056
-68.8947 -96.531
-55.2749 -91.6839
-41.5044 95.9172
-51.2063 -94.2457
-60.0261 -90.7479
-98.9891 87.1875
-55.7947 82.1905
-65.7681 95.125
-67.3895 -94.5994
-38.9618 -90.1532
-50.025 91.5909
-55.0889 88.6912
-40.8918 90.241
-57.4432 88.7576
-43.48 97.2332
-51.3871 -96.4849
-30.1981 -95.95
-35.8655 97.706
-27.2672 91.5499
-4.60357 -81.0795
-36.1077 -92.4849
-37.2991 -98.3122
-17.0949 79.5381
-19.0617 98.0146
-20.197 84.637
-22.1689 -75.921
-16.5154 -95.8199
-54.2647 -94.593
-30.0469 -81.9942
7.34353 -59.875
-16.7213 67.9499
-42.4446 -79.72
5.62049 84.5152
9.20233 -87.4233
-33.3105 90.5202
-10.1799 -98.5017
7.77191 88.0561
6.19677 -83.2775
21.2625 -93.0669
4.49984 -74.7373
-2.80441 -88.4603
-26.7604 -78.9723
12.088 -89.9271
21.018 86.7179
-10.8731 76.2695
19.1793 -92.9614
19.6671 90.5592
11.2992 -93.6556
24.9318 -91.5186
29.5173 96.2742
19.8182 -91.349
17.4089 -72.1673
22.2891 98.0466
44.3004 -92.2896
17.0152 -92.2668
17.8116 -90.778
7.20775 -89.2508
44.0754 -83.9434
24.0098 -84.2267
23.2219 -86.2537
39.7989 92.1019
76.894 -91.6798
23.6582 -94.0403
50.6088 87.3615
66.8934 -84.6411
55.2153 -87.4466
37.8275 85.5711
66.0832 96.8006
27.7235 -96.3963
59.0137 95.4132
75.7661 -75.0835
50.4967 -94.1016
55.6322 -62.9938
54.4873 -93.6147
94.1677 -95.4704
63.8155 91.6503
76.9616 -88.7661
95.128 -96.1131
71.7408 -90.126
91.9205 97.7084
82.5758 86.4038
85.9015 89.6377
74.5918 -76.4046
-93.3476 85.3744
82.3884 -75.0677
86.1275 82.4082
-76.7953 -96.4138
84.8794 -95.3154
-71.2231 98.2532
95.0585 -93.6041
-82.8267 -86.2196
-70.2408 94.7691
-87.0263 75.1889
-89.2833 -80.3408
-65.165 93.8314
-76.5173 80.138
-62.6906 82.8635
-87.5237 -98.2201
-77.8062 79.1229
-72.9591 95.6117
-49.2653 96.8435
-75.1601 83.034
-78.1414 96.0097
-90.8211 -83.8942
-65.957 88.6019
-58.7785 -92.9949
-41.8809 -85.1805
-53.4828 95.9436
-60.9501 -91.3029
-44.4424 -82.8319
-49.9363 -81.0355
-62.9335 -86.7304
-73.463 89.8492
-53.1011 76.492
-62.4906 97.0847
-40.3248 -85.8404
-48.6074 74.984
-36.0912 -62.8651
-24.7154 95.4969
-60.9899 91.3893
-34.2341 -85.4527
-18.537 96.8252
-45.9576 86.9779
-24.5856 -86.2314
-16.2453 -97.4984
-24.3786 -88.9046
-36.0004 -82.1565
-20.3477 97.4529
-46.3755 -86.6458
-1.23408 -84.6526
-21.4294 -92.4857
-31.5573 89.2055
-27.2974 83.3335
-18.8287 95.8467
-27.5025 -77.8606
-6.23392 -75.3574
-4.88612 -95.6008
-13.049 -94.8369
-1.19179 -94.8677
10.8475 -75.9252
15.6413 97.4995
3.41277 81.4884
23.4878 94.8995
6.7117 -95.8817
10.1588 -92.5767
37.3338 -88.558
12.4024 89.024
40.5041 -74.7389
24.4067 -88.6149
13.7673 88.0935
6.42431 -79.9918
37.8719 -95.071
15.2868 -64.4632
17.3615 -93.411
30.9497 -77.4868
32.0883 -92.8492
52.1948 -98.2517
19.6002 -77.2059
41.5748 -80.0881
35.5222 78.5907
20.8494 -91.9677
2.46797 80.0098
43.0975 87.5379
29.3845 86.5897
44.1161 94.1777
25.9771 -96.0359
74.0829 -92.6452
63.6516 -85.3962
30.6558 -93.2439
48.3078 98.8753
43.4752 95.1745
57.3497 -95.1697
70.5078 -84.0688
82.9643 -71.3202
74.4159 -75.1367
70.4183 -74.2657
-78.5796 97.376
75.8241 94.7853
88.3486 -84.9818
85.0307 93.4102
84.6463 -85.3567
89.9169 -91.2799
-90.5317 -81.7238
64.923 -83.0581
85.0188 -96.7602
70.8834 88.6735
-96.2973 -90.3331
89.7113 84.3995
-82.2904 -87.5028
-97.3121 91.8566
-67.6055 -85.6
-98.3536 -88.989
89.9804 95.8857
-78.4316 -87.3418
-86.8458 91.7893
-56.957 -83.958
-49.5106 -73.9412
87.262 -89.8917
-92.8184 92.8875
-75.3075 -78.3317
-65.4498 97.7569
-85.7256 75.9895
-56.1805 -76.0808
-72.3481 96.6221
-63.5866 79.3839
-93.1832 -96.7919
-33.914 -80.7506
-54.3178 -78.3819
-51.8339 -85.6075
-79.44 -62.6995
-54.2969 -81.1264
-35.0309 -73.2501
-76.6858 90.9118
-30.9812 72.4961
-49.6942 83.9588
-41.2802 -98.5737
-42.185 87.283
-48.5924 -78.4297
-50.7541 -89.1439
-42.3314 -97.0563
-36.7986 -96.4977
-39.1029 94.1876
-8.90897 95.214
-24.743 -95.2562
-36.2052 -76.7209
-36.1277 -73.9675
-16.0923 -84.097
-32.259 90.2165
-22.467 96.2927
-20.3608 95.8572
9.64456 82.6831
-32.2304 -82.5023
-13.6452 92.8496
3.36269 93.0468
5.77128 -84.4609
-15.0158 -95.7918
-11.5182 -98.5321
-8.64846 -97.4799
13.7489 -88.7886
1.96396 -88.8306
1.2627 -93.2461
-0.0282573 -98.9371
-7.3014 -90.3432
12.5477 93.5641
39.6833 -85.2458
48.7983 -82.4814
26.1697 -83.4499
37.2357 -92.2651
14.628 97.8585
4.47467 -71.7392
7.97085 -86.3406
18.1978 96.9106
7.76564 -96.5426
25.8637 -90.0777
48.8235 -85.9193
41.4275 83.9933
16.1169 -93.2336
16.8586 -79.079
43.3424 -85.2932
17.2499 -94.6771
62.888 -92.7978
26.4206 91.4911
43.5538 83.2028
60.1329 -85.1616
54.874 -70.1253
58.4021 -79.1511
52.4212 -87.2511
50.7468 97.7808
53.4871 87.3005
78.7962 85.9637
83.7431 -83.8291
66.3619 86.8721
58.9375 -77.2446
80.7515 -84.177
69.8647 73.4034
74.778 97.6182
69.1725 -91.1998
98.1867 92.4752
83.6869 -98.0992
59.0309 -81.1932
61.7281 -87.1864
90.5804 -66.2744
91.3498 -85.491
86.5584 -79.5153
-97.0703 -74.7521
-79.0416 -91.6866
-90.6433 -97.5561
85.6085 -92.1035
96.4667 -78.1313
-92.036 -89.5573
-74.5539 -94.7576
-73.6933 -89.3723
89.6048 -79.3068
-98.1867 98.5481
-79.3575 -94.0545
-68.2783 -66.6305
-83.9126 81.9641
-66.5164 85.9915
-76.8436 89.3559
-71.3136 -64.437
-84.0576 98.0834
-64.4304 92.5655
-55.2328 -84.7231
88.0262 -91.7742
-66.526 -92.0469
-66.895 -87.4949
-56.3023 -74.6412
-54.6623 -82.5604
-72.5226 -67.099
-62.4032 -91.7177
-45.3415 -97.0155
-23.0423 95.3511
-49.3764 -91.5794
-45.1203 83.9033
-39.6231 -84.8565
-47.6219 82.6364
-61.5137 -68.6748
-55.1093 86.077
-29.395 -80.8718
-41.2581 -75.6697
-29.8638 -88.5645
-58.7084 -69.6584
-26.1047 -93.687
-28.5013 -85.4991
-31.5881 86.7628
-23.4693 -86.2985
-9.07757 -73.5998
-36.8425 -84.6811
-1.36321 -93.8008
-3.84714 -79.8081
-19.1202 -74.8451
-17.028 98.9768
-9.92921 87.7922
-3.95101 -81.8471
-23.3494 -73.7411
6.07623 97.5891
-12.0666 -95.4604
-6.1336 -97.7298
-9.09908 -92.448
-17.9723 -89.4474
16.6806 -90.9778
10.0034 95.7377
-16.8516 -74.0459
-2.06678 94.512
20.6437 94.5796
19.8676 -90.2344
8.43437 89.9901
9.58043 -83.3594
19.182 82.0587
33.2343 -91.59
11.5577 -74.0885
20.7761 -75.6469
29.7915 -78.6484
28.3149 -83.1549
45.5636 -94.4169
23.667 87.0703
30.531 -91.965
39.1787 -62.3742
42.1972 95.0961
33.4693 91.9628
52.351 -81.8334
43.8676 -97.3103
57.8361 88.0873
45.9667 -88.319
50.8818 -89.407
68.2224 -95.9092
35.5012 88.5671
53.5958 -91.5736
38.999 87.1945
53.2688 -68.0031
70.0021 96.8787
68.0363 95.1614
58.0481 -96.1342
63.0201 -87.8116
83.7695 96.3174
87.823 -94.6673
63.8952 -84.4265
62.4361 -86.1203
76.5721 -86.0654
-85.1063 -88.5819
90.374 -93.1012
-98.6142 96.255
-70.7962 -87.7154
71.8627 -76.3692
79.2699 98.4779
-64.3607 -85.4926
-97.9267 -98.262
-89.6777 78.6384
-97.8119 -86.4825
97.5865 84.509
96.3149 -52.6908
-71.2611 -88.6298
-86.0765 -98.4989
-80.7361 -85.7731
-75.6498 -89.2616
-80.6099 -82.4668
-64.0354 -98.7477
-84.0128 -90.9407
-86.8876 -74.6831
-76.244 -94.0963
-51.0408 -92.2495
-50.9313 -85.166
-75.7628 98.8776
-39.3283 -78.257
-51.8446 -93.1694
-56.084 -72.5789
-50.7799 -97.7519
-42.6873 -76.0026
-61.9954 -81.667
-48.2233 -93.1231
-43.4995 -94.962
-57.0513 -85.1931
-48.9468 -81.9453
-63.1851 92.1945
-50.9775 77.6595
-41.9871 96.9074
-60.2719 -80.4548
-43.8309 -86.0712
-43.4575 77.8987
-36.4506 -95.0835
-49.9204 -70.5679
-16.596 -92.7708
-40.8013 -67.9915
-35.8906 88.0809
-39.2471 73.7342
1.52578 -94.9454
-15.9922 -78.8018
-10.9822 -84.3933
-34.0682 96.2091
-40.7061 -87.8474
-20.7507 91.99
0.256831 -77.986
-16.3363 -82.8632
2.44894 -76.3202
-24.537 87.8377
-4.21045 -98.8759
-7.6348 -98.2215
-16.7348 -94.7976
17.0886 -74.7096
-7.05716 -80.948
-1.37545 -55.4012
-3.70756 -76.7154
8.5715 95.1365
13.9434 -74.7192
22.5903 -73.6116
-0.845967 -91.9068
31.7003 -76.1819
13.5086 -91.4174
3.82544 96.4974
14.3288 -59.2176
2.91239 -60.052
47.42 -92.6598
12.1702 -77.9659
17.2542 -80.5774
36.7582 -80.6832
28.9963 -88.5679
35.6709 -95.7193
27.0631 -94.4809
33.4809 -85.1348
30.7465 -98.3628
51.7423 87.3703
73.0251 -87.6974
53.2576 -89.0541
61.9103 92.3843
67.8958 96.56
49.6539 -70.6546
64.8097 -80.5988
53.1092 93.0169
49.3398 -96.1848
63.4697 -83.2406
60.4486 -90.9499
50.2803 -82.2058
67.0622 -94.6727
-96.0464 -98.9335
71.8473 -78.5975
75.5312 -91.8499
75.8384 -90.3152
78.0935 -85.9545
90.5005 91.1932
91.767 -94.9968
-94.4889 87.7014
66.3402 -85.8254
-94.6442 -80.1583
-83.774 -87.5392
85.2734 -72.478
91.9016 -83.0021
80.4997 -75.137
92.3178 -85.9681
80.7845 -67.3223
-69.5075 -95.4174
88.8436 -66.5882
-72.2827 98.1538
-90.806 -92.3432
-84.9821 -96.994
-66.8882 -82.5739
-73.4383 -83.5282
-78.1387 91.2922
-52.7331 94.9784
-57.6866 -95.5673
-72.6732 -74.4973
-42.3197 85.3135
-59.4785 -81.9842
-51.819 -83.6668
-85.3986 -95.1161
-55.8207 -82.6846
-78.7345 -97.1285
-73.2123 -60.8775
-57.9769 -84.5699
-56.599 -77.2318
-62.8521 -67.2532
-36.8722 96.4068
-52.9129 85.583
-52.0134 79.7473
-68.8383 87.3713
-48.5376 -94.2025
-30.1523 -97.0259
-53.7124 -90.3826
-49.0008 -67.6469
-43.0483 72.9824
-47.905 -89.8003
-37.1869 -90.7499
-27.9907 -80.6893
-48.1441 -73.3323
-47.8517 -77.6518
-27.949 -84.3344
-13.64 -84.4919
-22.4222 -92.3359
-33.9934 98.9114
-1.30807 97.3705
-18.1195 -93.2244
-15.8146 -86.1461
-12.3858 -90.3382
-15.3414 -92.3133
-24.5 -97.3095
-9.06186 96.9004
-18.7779 -87.5674
-2.79036 -81.8665
-24.3669 -67.016
2.40765 -72.0099
-20.118 -79.9991
3.13508 -94.1981
-16.1802 -90.5658
0.632193 -89.8943
-8.12421 -85.0915
7.30584 -69.4701
4.77088 -92.3032
7.34712 94.5803
16.0283 -85.7666
12.4516 -81.1944
24.5205 -86.5366
18.8023 -73.3875
24.0376 -80.112
33.9726 -86.3528
41.937 -89.2826
39.5361 -79.1576
40.9426 -93.0735
39.4918 -71.581
20.9424 97.4209
41.1385 -86.1841
31.6888 -80.5579
12.2251 -73.0488
33.4024 -96.6514
47.0124 90.3179
41.1821 -94.2588
58.9052 96.6869
53.8949 90.3536
37.5653 -89.5684
48.467 95.33
33.7629 -93.9382
68.4607 -92.4431
62.7326 -62.8266
48.9802 -97.6
92.0613 -97.5825
74.8703 -69.3865
87.0454 -72.6784
98.7322 -63.8656
54.3684 -88.5663
79.6528 -76.1326
86.6333 95.0875
-81.4496 -90.7886
66.1758 -77.8185
79.7811 -92.5407
87.6371 -58.8399
83.0044 -86.7732
89.5244 -69.4431
-78.8187 -80.7512
83.3303 -88.3835
-87.1195 -66.3242
-95.987 -87.1617
-85.9468 -86.8306
-91.5836 -87.1377
-88.6486 -60.8486
-80.4276 -64.4546
-96.3292 -85.541
-88.7284 -89.0977
-88.9748 -65.3665
-71.504 -96.8158
-70.2526 -83.7008
-63.2787 -88.2622
-66.4161 -77.8613
-68.416 -89.6607
-65.3757 -91.8782
-85.4707 -74.521
-73.757 -67.5012
-49.8478 -78.4494
-55.6234 -97.16
-75.0468 91.7358
-50.5437 -73.9683
-74.2749 -76.7017
-53.7887 -74.664
-43.8298 -75.1618
-48.5576 98.2724
-62.3125 -85.4869
-45.1704 78.6959
-32.0019 -87.1668
-29.0513 -93.8919
-50.3825 -93.6391
-57.6288 -71.3656
-46.6156 91.476
-28.939 -96.9902
-51.2968 -66.804
-34.3039 -63.2094
-53.9815 -76.3497
-3.58432 -74.8732
-34.7033 -92.1727
-20.4697 -82.3293
-14.4658 95.5814
-0.795349 -83.5126
4.61419 -94.8268
-8.7087 -55.4469
-29.2214 -67.617
-24.937 -76.296
-16.6445 -80.1987
21.119 -70.5722
-21.9743 -69.2883
1.04593 -84.8493
6.36611 -68.3345
-2.21403 -87.1534
1.81463 -97.957
6.61992 -63.9248
-23.1358 91.9237
8.7011 92.5377
26.2339 -86.8888
4.28897 -67.8556
-10.8319 -75.5561
34.5703 -89.1053
6.70505 -90.2277
-3.33448 -72.8571
-1.08787 -67.7836
16.7793 -71.339
31.9236 -63.7311
53.4013 -96.5825
8.7752 98.4878
38.8777 -91.2885
45.0813 -87.532
23.1045 -72.2811
50.6076 -91.6785
38.4275 -72.89
43.5838 -77.4449
49.6111 -94.9837
31.1242 -95.8642
47.6929 -86.0146
18.2032 89.7247
42.4589 -96.8901
44.1977 -89.2909
48.7058 -77.2037
44.5272 98.391
74.4422 -55.3132
78.29 -78.1828
83.9196 -92.0526
81.7559 -76.3951
69.8394 -94.0401
66.083 -92.9631
57.333 -82.9757
71.7811 -97.2936
82.0762 -72.9267
55.991 -85.4989
84.82 -79.6983
72.3947 -83.5597
91.8805 -61.5955
68.9046 -72.8865
96.3956 91.3233
-94.0756 93.0704
-83.1419 -89.6648
90.5259 -86.0871
80.9871 -93.6102
-98.9259 -70.6739
-93.5885 -94.7844
-79.1074 -95.0394
-98.0889 -72.951
93.169 -97.7778
-66.3793 -90.3565
-91.4747 -80.0538
-86.307 -89.3312
-77.1126 -79.2664
-66.7676 -47.9287
-69.066 -73.9823
-80.6549 -71.8994
-87.4846 -70.218
-78.7188 -67.5096
-64.8037 -89.9239
-62.8223 -77.1232
-68.9658 -59.6656
-63.5468 -76.2211
-69.7726 -84.7718
-67.7698 -88.7903
-62.4151 -57.5278
-32.0314 -71.7367
-45.135 -73.6432
-58.8664 -83.0915
-40.1187 -98.3133
-44.8091 76.1501
-35.2788 95.9823
-41.682 -72.9147
-48.155 -86.2809
-70.6384 -72.1614
-37.5648 -82.053
-18.4676 80.465
-51.5566 96.2324
-36.2933 -54.2842
-36.5886 91.9483
-36.5108 94.2871
-20.3356 -86.7574
-34.4845 -75.4332
-45.7676 -72.4332
-38.8058 -93.0964
-6.50654 -98.9914
-29.3874 -74.1142
-8.84059 -64.7814
-25.6333 -88.0014
-45.1336 -81.7658
-38.6854 -79.5007
-2.03297 -76.4399
-27.3347 -74.5327
-9.72616 -81.5167
-32.9111 -85.5746
-26.1275 -62.4245
-12.4694 -75.1878
-2.14074 -74.7805
1.64048 -74.9828
-0.831091 -78.8689
-7.5245 98.1595
-18.814 -69.8402
48.4376 -79.443
0.837749 -98.278
9.82989 88.5162
23.5374 -78.9635
29.0394 -71.6001
10.7068 97.2524
43.5025 -79.4834
-0.250765 -73.8212
3.97243 91.5453
40.0458 -65.0676
5.0104 -79.323
20.3781 -73.2215
33.834 97.3373
41.6754 -69.2954
39.9554 -76.4445
55.1234 97.7336
51.3619 -79.7474
43.4974 -67.6529
21.3372 -86.7488
42.8558 -60.6599
48.8476 -92.895
57.6798 -66.9769
38.5977 -66.456
63.4013 -96.9351
41.2414 -83.5517
49.3827 -56.0787
55.8616 -97.6067
54.7222 -86.4928
73.1548 -74.2679
69.6784 -87.7791
69.1615 -71.86
83.3242 -89.6879
52.4007 91.6745
83.8633 -95.1126
86.1814 -57.0737
85.2617 -57.9865
96.9396 -62.9628
91.1271 -81.7413
85.7431 -94.0347
61.449 -60.6297
81.0858 -82.0687
89.2471 -75.993
92.4271 -72.0477
-86.6021 -76.913
86.5612 -83.9541
-62.0542 -84.0691
-82.2271 -82.259
-82.9683 -91.368
-74.7551 -73.5087
-66.8194 -89.3605
-60.1251 -95.9128
-73.5539 -81.9268
-91.1992 -94.598
-81.1878 -89.3701
-75.3459 -83.5048
-72.4097 -87.4848
-49.659 -75.6075
-54.6051 -89.3757
98.8153 -76.2558
-69.2445 -78.7702
-68.7309 -85.0425
-62.3371 -66.0041
-50.1627 -63.2749
-88.5454 -66.2733
-54.7164 -85.7436
-76.9837 -71.0766
-68.5838 -68.5186
-54.6827 -62.8392
-52.9679 -87.2887
-37.0083 -56.5022
-51.3713 -81.288
-33.2262 -78.4232
-23.2348 -71.7591
-57.8246 -68.9841
-46.4878 -80.354
-33.1254 -73.7553
-41.9507 -86.3266
-30.4797 -61.588
-27.2965 -69.711
-45.1622 -66.4583
-37.9148 -87.3546
-17.8657 -92.0302
-39.628 -88.8235
-37.7124 -67.0473
-23.5524 -88.1874
-38.7929 98.9147
-27.1742 -60.2742
-24.4545 -58.9078
-17.7179 -67.8149
-22.5808 -70.5681
-5.24674 91.0309
-2.35051 -82.9039
-0.010283 -77.0171
-9.70228 -88.5694
15.403 -86.742
2.18167 -81.2501
-6.43268 -76.5977
-4.52154 -65.484
-0.556557 -64.6351
15.7059 -90.5815
-6.46959 -89.7018
-22.0139 -87.432
2.48511 -70.7789
9.78847 97.8177
23.4594 -76.439
22.4282 -85.5277
30.259 -84.6812
23.0286 -70.6905
28.572 -86.4948
22.138 -74.7642
13.2892 -77.1904
26.8063 -80.0085
42.048 -67.6274
41.9425 -74.185
13.5795 -85.8413
38.4683 -70.8769
53.1431 -65.9065
45.4228 -46.1655
45.5371 -93.1667
45.4689 -84.1951
53.7866 -70.6095
51.0679 -30.0134
54.693 -81.5392
46.1362 -91.4572
54.3882 -76.2859
61.7292 -97.5986
41.2318 -79.0602
60.2926 88.5324
73.042 -71.7026
71.0169 -95.9036
64.6072 -94.9686
79.0674 -84.5667
88.8339 -90.133
83.0128 97.6956
67.9418 -73.7225
80.7693 -72.6527
78.1252 -70.8947
86.9889 -92.9911
68.5215 -89.2197
-96.1406 -80.277
-88.8678 -90.5539
-77.529 -73.1537
-90.6779 -88.0516
93.6602 -62.1384
92.2091 -68.5103
-95.62 -62.7692
96.8885 -81.9046
96.4491 -71.2871
95.4674 -57.0285
-93.6815 94.6456
-87.6083 -82.5395
-87.004 -78.1443
-92.5563 -69.7558
-91.9628 -74.8513
-73.133 -85.5761
-61.5098 -79.1202
-67.3823 -72.4519
-71.1519 -57.6394
-86.8745 -59.1819
-65.2402 -74.096
-44.5199 -94.5754
-82.6984 -80.381
-61.8059 -61.362
-47.9498 -75.1926
-59.7401 -53.6807
-66.9957 -66.5078
-51.8907 -94.9682
-50.6623 93.6406
-37.1222 -63.6005
-43.8952 -77.1456
-46.2401 -75.9711
-61.4689 -66.5157
-43.6712 -73.3069
-51.4744 -77.8956
-52.577 -71.0394
-44.9271 88.1425
-37.6477 -88.7512
-35.5686 -69.8786
-44.3157 -88.7226
-30.6902 -86.5216
-37.0506 -71.8567
-33.9668 -79.7204
-12.5012 -81.7289
-3.22963 -84.9439
-14.4383 -90.2956
-49.1758 -77.1026
-29.8135 -77.6246
-27.3327 -94.249
-19.8434 -75.7277
-29.154 -95.1025
-16.494 -71.6848
-26.5213 -84.5229
-14.1713 -91.723
-11.1458 -97.5535
18.1367 -64.6027
12.6688 -55.2683
-0.754922 -82.136
34.9326 -62.6161
12.4799 -57.6419
-15.4782 -79.9574
-25.8378 -74.0389
12.961 -65.4383
19.4198 -87.5068
3.49816 -80.3079
7.22253 -88.1515
0.698867 -67.5498
33.7148 -76.9257
21.2829 -63.178
49.5945 -79.2531
15.5363 -76.6876
49.6947 -66.5801
15.3606 -78.9828
12.8063 -75.2252
53.657 -86.1275
0.0364424 -69.909
39.2117 98.5311
45.1616 -68.501
48.2626 -83.9646
12.006 -79.764
39.7375 96.6374
55.6106 -68.9711
62.4114 -77.2334
51.174 -75.6673
36.4928 -93.4608
65.0749 88.7502
53.015 -52.0396
60.2392 -79.591
52.1791 -73.3254
69.2404 95.089
42.3912 -72.6098
70.117 -85.1251
-95.305 -43.9298
61.9992 98.3393
65.1908 -74.5557
54.4366 -74.7722
78.2798 -83.3432
-96.9273 -60.4724
-85.222 -75.8006
-79.0587 -61.3039
90.2692 -83.4909
94.5337 -70.3339
86.1505 -69.0329
-98.5698 -60.2392
-89.6173 -86.7641
79.779 -47.9844
-78.2771 -82.6632
-84.6224 -82.9405
-89.5597 -71.854
-66.8592 -83.6222
-90.3342 -78.3773
-74.7095 -81.171
-84.8095 -68.1231
-64.0495 -87.2954
-67.4302 -75.4612
-80.3527 -83.5344
-70.2614 -65.5473
-65.2898 -81.009
-62.1692 89.8468
-63.9525 -80.1873
-64.3843 -62.9904
-93.2482 -64.7967
-61.367 -89.3343
-42.8961 -60.7267
-77.6105 -78.1803
-81.4756 -76.62
-36.3432 -86.5218
-59.6842 -74.6888
-73.4335 -62.1617
-60.6223 -84.658
-65.9284 -79.5167
-61.9204 -86.8444
-32.6503 -70.9569
-41.388 -60.6841
-40.9691 -69.9902
-44.993 -78.7744
-43.4328 -78.1664
-20.1849 -40.8438
-24.5902 -82.8611
-27.2193 -92.8256
-3.16871 -64.398
-25.2939 -90.1138
-31.3081 -78.5469
-37.8033 -57.8222
-55.6173 -89.3156
-3.3314 -89.8145
-26.223 95.4
-33.9026 -60.6176
-40.7235 -49.6571
-44.7585 -74.681
-14.5503 -72.9899
-14.8918 -83.4775
10.5466 -68.9455
-14.071 -76.8579
6.91108 -77.3692
35.3868 -66.5811
8.62794 -77.5434
-21.6931 -64.6985
9.97505 -55.6404
-17.4883 -76.6642
-8.51986 -69.0528
4.82352 -55.5087
41.3006 -59.8073
7.87173 -62.1449
12.5566 -71.565
3.99441 -63.6591
26.2421 -77.6992
26.2679 -71.5563
29.0205 -60.667
17.2474 -56.6731
22.8926 -68.8411
29.4585 -63.795
0.206963 -47.4602
56.7047 -72.5327
43.5427 -87.7142
66.1237 94.8236
44.5988 -82.443
26.0741 -57.3701
45.9801 98.7941
15.946 -72.8839
45.4986 -85.3667
57.671 -60.0631
40.7974 -77.9109
48.5869 -78.3036
42.9504 -65.5269
59.7123 -70.9354
48.3518 -84.9964
80.7989 -83.0288
58.6452 -75.2895
41.0508 86.8863
38.845 -94.2318
88.1011 -77.8844
85.0127 -84.0229
73.1435 -77.6535
49.6695 -87.7391
66.2947 -89.4026
68.081 -64.0795
82.3797 -85.8842
98.3822 -90.2448
83.1597 -85.1474
95.4456 -77.0308
-93.8646 -88.2337
-98.7948 -83.3259
-81.5356 -92.1115
-78.9884 -56.4298
-97.9728 -45.5695
-96.5308 -66.279
96.6585 -90.8854
-83.4218 -63.8115
-70.1962 -58.533
-72.9236 -70.546
94.1768 -88.7166
-81.6982 -77.678
-65.0051 -72.0724
-83.3822 -73.1433
-63.1222 -84.1181
-70.4821 -73.8378
-79.8696 -73.0709
-47.048 -90.9052
-81.8855 -78.8803
98.9163 -93.2372
-68.0099 -79.3447
-69.7959 -64.3352
-62.8832 -74.2384
-45.845 -78.2224
-74.5026 -82.2929
-64.1648 -53.2877
-47.0193 -84.7426
-49.4331 -93.1773
-61.4843 -77.9971
-39.3188 -91.982
-32.0187 -96.457
-58.289 -65.8604
-64.4494 -58.3034
-61.467 -49.0872
-47.3904 -64.7516
-45.5149 -85.184
-30.797 -73.6195
-51.4922 -40.8833
-44.5832 -60.7547
-30.7815 -80.4494
-38.1199 -96.5535
-15.5615 97.5074
-38.8553 -86.0752
-18.0228 -38.7794
-26.5557 -83.2604
-34.4848 -89.9154
-24.2143 97.5409
-39.5387 -74.434
-16.3938 -81.272
-9.33725 -96.4493
4.54361 -80.5297
-17.7375 -79.4317
-14.8826 -82.4059
-9.67886 -83.797
13.5581 -79.3764
-23.5696 -69.1247
10.0536 -85.6294
-8.24669 -96.5258
14.0743 -60.2959
-10.9156 -65.4494
3.29294 -78.4543
38.1045 -73.8678
0.510037 -83.843
-0.122226 -85.9992
26.1628 -74.8485
22.1039 -71.1282
41.0777 -76.7452
32.0946 -86.6913
17.8941 -87.8581
27.2808 -67.8063
34.7727 -73.7285
29.2609 -69.2465
39.2075 -67.7325
35.0892 -86.4675
17.2421 -58.6826
39.7637 -69.9134
23.3492 -87.5667
56.3239 -71.4449
45.9779 -95.9059
35.8543 -85.2807
48.0914 -64.7819
71.7656 -73.7211
76.478 -76.6443
58.6189 -74.0801
62.2847 -82.9974
64.3946 -62.971
77.8124 -76.8917
54.3877 -68.0219
58.8139 -84.3964
60.7663 -61.7702
73.8148 -53.9618
39.4657 -87.1908
79.4601 94.6891
61.5784 -88.5635
84.0163 -78.3274
56.7747 -93.7837
93.6854 -77.8178
93.2408 -50.0368
-92.2344 -72.2081
92.6478 -69.6764
57.2369 -62.3592
78.6905 -68.4472
88.8892 -96.868
90.2491 -51.9921
94.6176 -79.2425
-81.7931 -53.225
-87.9953 -62.7749
-76.4367 -70.1715
-94.5713 -67.6893
-69.6018 -88.6692
-66.7001 -93.5257
88.4998 -60.7572
-96.4063 -84.5263
-97.1735 -67.8556
91.3953 -93.3719
-66.4929 -95.5505
-65.4311 -95.1645
-73.4974 -91.9774
-86.1952 -75.4396
-53.6975 -46.4527
-50.2168 -68.6281
-52.5402 -64.8568
-60.7626 -71.5413
-77.8608 -55.9036
-60.9861 -73.9278
-56.3345 -61.4387
-41.3852 -82.779
-57.4037 -63.5753
-70.9554 -61.1793
-33.6559 -57.4991
-65.4 -87.7107
-29.265 -86.4899
-47.3434 -58.6522
-45.2421 94.7167
-39.6907 -49.8224
-43.4594 -65.3601
-58.3496 -75.3589
-39.1377 -77.1401
-30.7288 -50.7847
-50.9376 -55.0671
-27.4203 -72.914
-17.4175 -52.6447
-33.6764 -83.555
-12.1646 -91.4009
-27.2029 -61.5149
-18.8718 -79.5136
-42.0695 -81.9565
-26.104 -75.4463
-50.6729 84.4746
-17.0637 -77.9246
-26.1075 -72.1754
-8.56748 -82.9811
-3.52529 -70.9811
20.2822 -69.9175
3.15331 -83.3183
23.2098 -64.3971
-0.268486 -71.9387
12.6141 -84.2013
-13.5576 -58.9711
16.5642 -65.4966
10.2309 -77.2339
5.15847 -60.1708
-1.48953 -69.5884
-8.83587 -72.1732
36.9369 -82.7532
7.21124 -81.1792
25.6854 -69.6977
-6.6514 -63.3629
38.9975 -88.212
18.7682 -67.2729
66.2083 -60.3236
26.7342 -75.8259
44.1081 -80.9365
50.7306 -58.4912
9.36645 -79.2828
29.3294 -82.328
47.2933 -68.9479
49.2401 -53.2105
12.3076 -76.847
56.8823 -70.3033
57.5452 -55.8293
67.5322 -68.8806
60.1443 -74.6175
59.9863 -83.002
47.677 -81.7458
83.9091 -62.9727
53.2679 -90.5194
46.7891 -57.4989
47.0491 -70.6909
52.0483 -85.5499
66.1632 -82.2418
66.6596 -78.7107
43.0945 -74.713
-81.1281 -68.6174
60.4722 -56.4651
76.8468 -71.8575
95.9362 -74.6
90.4662 -59.5398
83.5903 -58.2581
88.0813 -97.7579
-84.7517 -85.0789
-90.9082 -86.1772
-96.3318 -78.4312
-81.3629 -59.9023
92.8655 -82.4841
-75.5306 -68.0147
-91.2146 -73.7768
-98.0288 -64.2656
-57.7268 -56.2956
93.0886 -66.6872
-83.2725 -72.1148
89.4448 -85.7337
-66.6192 -81.2696
-73.1599 -51.9703
95.3037 98.3753
-57.0236 94.0793
-62.5572 -95.8982
-67.2431 -56.7896
-88.0628 -79.0062
-72.3763 -84.3182
-57.6517 -62.0591
-58.9011 -57.0733
-62.6017 -69.7007
-77.0061 -58.2345
-61.3928 -69.8041
-60.6284 -60.5782
-66.6549 -68.3289
-34.7988 -56.6545
-58.734 -71.4384
-31.0091 -56.354
-47.3717 -74.0812
-31.8699 -68.3804
-40.7791 -71.7693
-29.6526 -37.8502
-34.7032 -54.3832
-33.8643 94.723
-28.6099 -41.4371
-31.3926 -57.9387
-15.5696 -61.3736
-16.6301 -37.0754
-3.09729 -57.9949
-19.2725 -68.7103
-24.8617 -92.9596
-9.11314 -56.8523
-42.9775 -85.1289
-31.722 -93.8489
-28.713 -72.6404
-7.32892 -86.5197
-10.4751 -77.2044
-7.20552 -68.1668
-22.1937 -67.6958
4.05638 -82.7748
-33.0734 -90.8448
-7.70132 -75.4821
-13.5707 -74.2912
-25.4774 -63.8721
10.6797 -79.6892
-3.42581 -67.3211
-24.4954 -72.5554
6.99631 -86.0621
15.4891 -38.3302
-3.15221 -59.3288
13.9847 -61.9102
-25.3463 -77.2147
25.9238 -78.8288
10.0626 -40.294
39.6455 -43.7315
19.591 -75.6811
38.0496 -64.4102
1.51958 -60.3872
30.7886 -79.491
38.3305 -42.9408
38.7159 -58.3898
62.9243 -56.7286
49.681 97.2957
65.5393 -66.6132
40.292 -68.6343
36.6178 -66.8893
41.0483 -67.1337
61.427 97.4952
24.7073 -56.3748
67.6679 -47.2936
71.0998 -77.1654
71.6123 -49.1732
70.2756 -75.5678
54.6975 -61.2761
72.4928 -81.6552
68.0501 -43.3192
62.9423 -81.0127
59.9093 -47.9398
68.1947 -82.6634
92.2406 93.0973
63.4879 -67.5863
60.0379 -58.677
55.0631 -65.461
97.9052 -85.213
78.0511 -79.7673
81.1449 -60.9487
72.7952 -89.5667
93.2188 -47.3784
-97.5762 -66.3568
-94.5173 -62.7728
96.8322 -69.6393
-82.0203 -74.6732
92.8841 -75.6465
-91.4436 -49.3426
-97.7316 -78.151
-88.9367 -82.3791
-89.1312 -83.5157
-92.7995 -51.9254
-91.1114 -62.5427
-65.6346 -96.5171
-96.6844 -89.252
-72.3334 -77.6745
-76.0106 -85.2326
-88.0094 -48.2954
-86.1072 -64.758
-62.3302 -64.5776
-69.5007 -85.7871
-75.2045 -61.276
-68.4033 -58.2565
-65.8736 -75.94
-63.3865 -65.1208
-57.6323 -73.5473
-69.7601 -62.1093
-45.6551 91.1646
-67.6265 -51.8701
-41.6806 -90.1954
-51.3795 -63.2999
-50.4103 -38.4903
-55.1371 -66.4388
-75.7206 -73.7648
-39.3375 -87.1391
-53.3611 -68.6065
-49.7654 -65.9181
-17.0371 -46.5636
-30.7423 -67.1478
-52.4956 -79.9621
-24.983 -39.6095
-46.3175 -51.472
-27.5192 -47.9884
-23.7762 -75.3918
-35.987 -84.13
-10.5749 -64.2826
-19.4692 -66.8585
-17.5858 -69.2734
-44.1649 -70.1199
-10.6776 -42.9212
-24.6499 -71.4548
-9.34725 -62.9342
2.38841 -74.1197
-6.40022 -95.789
-4.66884 -70.8882
-18.7104 -95.0717
13.8357 -66.5998
-21.2399 -66.9465
-24.2992 -79.9833
-1.2677 -29.6336
-10.3128 -55.0294
12.598 -60.3569
20.6293 -72.0086
6.33817 -55.5752
32.515 -85.6671
-6.61615 -66.8786
8.68882 -75.2494
5.64677 -65.1805
34.477 -54.7073
38.0461 -87.5979
38.9564 -82.9984
47.3723 -98.4866
51.8568 -58.3072
29.2199 -64.8434
48.9031 -73.6116
33.1552 -69.2185
8.95636 -89.0321
40.7385 -71.1979
50.6456 -85.2624
53.9962 -64.2541
49.7423 -83.2452
42.726 -90.5449
68.4383 -60.402
74.6727 -58.6825
50.1605 -52.3475
68.5824 -80.3368
56.3903 -66.7397
69.9515 -62.344
55.1624 -72.9704
80.623 -59.79
71.5373 -69.187
71.7671 -75.2847
75.9785 -59.209
96.4297 -75.8807
78.0548 -75.3057
73.6038 -68.5615
62.931 97.3938
77.6333 -44.8396
83.5 -49.2203
73.2206 -51.1264
68.1305 -65.7657
58.5193 -64.2455
82.2309 -77.4208
-90.7374 -69.29
76.5883 -65.6042
80.984 -65.8984
92.1753 -89.2999
-84.9234 -58.484
96.3414 -97.2917
-94.7262 95.7678
-78.5158 -70.5254
-83.1568 -68.5569
91.1244 -63.3421
-80.594 -54.9923
-76.7666 -49.7815
-62.5573 -80.7691
-62.44 94.0702
-59.3852 -63.0715
-48.8894 -58.3986
-56.3301 -65.3467
-84.4741 -80.5127
-70.7387 -41.1755
-55.0721 -73.4362
-49.8934 -50.0701
-53.8384 -58.1314
-68.3903 -77.2146
-54.6368 -53.6588
-35.6342 -78.6319
-65.4701 -64.3591
-44.3658 -71.5051
-35.0543 -51.0356
-37.9655 -47.9375
-38.4841 -71.8625
-53.4259 -61.2829
-68.8371 -57.3087
-11.804 -65.9218
-42.3293 -54.7392
-26.9277 -64.8376
-47.082 -56.9257
-14.9741 -38.3275
-22.639 -64.1764
-46.51 -71.6519
-36.2944 -48.1145
-7.22934 -58.8173
-30.3495 -83.293
-20.8161 -66.0066