ITEM: TIMESTEP
1000
ITEM: NUMBER OF ATOMS
10000
ITEM: BOX BOUNDS pp pp pp
-5.7205700000000000e+01 5.7205700000000000e+01
-5.7205700000000000e+01 5.7205700000000000e+01
-1.1441100000000000e+01 1.1441100000000000e+01
ITEM: ATOMS x y
-56.8292 56.8931
-55.6313 56.9623
-54.1997 56.8275
-53.2923 -57.1449
-52.0733 -57.0618
-51.0993 56.8863
-49.898 -57.0611
-48.4356 56.8424
-47.5709 -56.6817
-46.4953 -57.1841
-45.4489 -56.7906
-44.3383 57.1736
-43.171 56.8878
-41.7565 -56.9692
-40.5241 56.9305
-39.392 56.8046
-38.3934 -56.8802
-37.3696 -57.1637
-36.2336 -56.9863
-34.7581 -57.1261
-33.7321 -56.7679
-32.7395 -57.1663
-31.7138 57.1157
-30.7345 -56.9905
-29.6469 -57.0776
-28.5661 56.8242
-27.2148 57.0091
-26.1047 -57.048
-24.7757 -56.7938
-23.5878 57.0982
-22.4684 57.0461
-21.4439 56.4862
-19.8469 57.012
-18.8855 -56.9819
-17.7321 -56.918
-16.3666 -56.8541
-15.4974 56.8024
-14.5312 -56.8451
-13.5149 -56.919
-11.9841 -56.8233
-11.0135 57.1781
-9.72424 -57.1407
-8.72782 -56.8098
-7.76464 56.9618
-6.60328 56.9913
-5.10763 -56.936
-4.11405 -57.0555
-3.07798 56.8948
-1.95499 57.1347
-0.93897 -57.1788
0.162727 57.2311
1.18996 -57.0599
2.20306 57.2084
3.62531 -56.883
4.90388 -57.0926
6.41436 -57.1748
7.16201 56.5727
7.96389 -57.0748
9.14547 -56.7009
11.1914 -57.0609
12.3417 -56.9447
13.1074 56.8222
14.0873 -57.1209
15.3169 -57.081
16.4794 56.583
17.4183 57.0104
18.335 -57.001
19.3181 -56.7983
20.4667 -57.0921
21.8457 -57.0041
23.0451 -57.2108
24.3073 57.1279
25.5268 -57.0334
26.6171 57.0966
27.727 56.8683
28.6788 -57.0655
30.0136 -56.8062
30.7399 56.8563
31.9808 -57.1273
33.2381 -57.0528
34.387 -57.0621
36.0347 57.0483
37.0692 -57.1256
38.1282 -56.8205
39.1781 56.9708
40.1886 57.1916
41.4117 56.8864
42.5257 -57.1027
43.5388 -57.1035
44.8524 -56.8977
45.9277 57.2191
47.5394 57.0574
48.4863 -56.8752
49.8135 57.0782
50.7308 -56.9118
51.7022 57.1274
53.1066 -56.9946
54.5173 -57.1658
55.5488 -56.7897
56.6218 -57.1004
-56.8982 -55.8283
-55.9797 -56.3256
-54.7285 -56.2209
-53.3667 -56.1329
-52.1388 -55.9384
-50.9609 -56.5219
-49.8096 -56.0328
-48.8482 -56.5835
-47.8248 -55.6432
-46.7975 -55.9643
-45.0896 -55.8516
-43.8096 -55.8045
-42.8385 -56.2019
-41.5927 -55.9042
-40.6903 -56.4719
-39.0212 -56.0634
-37.8546 -55.9753
-36.8434 -56.097
-35.8291 -56.0363
-34.7908 -56.0807
-33.7627 -55.7582
-32.6342 -56.0813
-31.6174 -56.0364
-30.5521 -55.935
-29.56 -55.6529
-28.4746 -56.4862
-27.4945 -56.0554
-26.4812 -56.0587
-24.7709 -55.6956
-23.8041 -56.2745
-22.7539 -56.4037
-21.6916 -56.5035
-20.5003 -56.0337
-19.4683 -56.0483
-18.0454 -55.7821
-17.0254 -55.9733
-15.5678 -55.8193
-14.5587 -55.8539
-13.1979 -55.8995
-12.206 -55.7741
-10.9101 -56.2139
-9.58036 -55.7561
-8.53824 -55.73
-7.63768 -56.2593
-6.6366 -56.2399
-5.56355 -56.0346
-4.44692 -55.96
-3.38228 -56.0293
-2.3055 -56.1782
-0.551694 -56.1859
0.531468 -56.1929
1.53406 -55.9378
2.82586 -56.27
3.77308 -55.7665
4.84194 -56.0413
5.85447 -56.1615
6.84283 -55.7747
8.51728 -55.8806
9.70821 -55.8058
10.7452 -55.95
11.886 -56.0119
13.1181 -56.0926
14.3428 -56.1349
15.3786 -56.0754
16.3186 -56.7459
17.4553 -56.4063
18.7773 -55.7337
20.1012 -56.1554
21.1746 -55.6142
22.4875 -56.0104
23.4777 -56.2896
24.9435 -56.2057
25.6198 -55.3967
26.3419 -56.3452
27.4681 -56.4007
29.1292 -56.085
30.2147 -55.7015
31.0566 -56.4683
32.4747 -56.2181
33.4707 -55.8406
34.482 -56.0652
35.5698 -56.4601
37.4099 -56.077
38.4797 -55.814
39.4113 -56.1995
40.8885 -56.2778
41.9643 -56.2456
42.981 -56.0504
44.1684 -56.0552
45.3087 -55.998
46.278 -56.2585
47.4962 -56.2874
48.4683 -55.8588
49.6218 -56.2318
50.8559 -55.9003
51.9368 -56.2047
53.0511 -55.9695
54.081 -56.18
55.1212 -55.7817
56.2909 -55.7605
-57.0382 -54.424
-55.4834 -55.181
-53.9553 -54.9338
-52.8832 -55.2395
-51.8812 -54.8568
-50.9978 -55.4168
-49.8835 -55.012
-48.8936 -55.4209
-47.7107 -54.5984
-46.5929 -54.9368
-44.957 -54.8179
-43.6392 -54.7604
-42.6187 -54.9823
-41.6109 -54.868
-40.6572 -55.3173
-39.5093 -54.3919
-38.4876 -54.9441
-36.9682 -54.8135
-35.7377 -54.9018
-34.655 -55.0065
-33.3487 -54.8376
-32.3562 -55.0853
-31.236 -54.6779
-30.1602 -54.6028
-29.1527 -54.698
-28.4172 -55.4471
-27.3081 -55.0695
-26.2808 -55.0522
-25.161 -54.6839
-23.8272 -55.2616
-22.5632 -55.0363
-21.2278 -55.2531
-20.1106 -54.7885
-19.0388 -54.8085
-17.9297 -54.6789
-16.446 -55.1262
-15.3967 -54.7808
-14.3518 -54.8164
-13.3339 -54.9045
-12.2691 -54.5582
-11.3579 -55.1884
-9.90891 -54.7869
-8.68797 -54.7144
-7.66073 -55.0372
-6.62326 -54.8925
-5.50381 -54.8258
-4.06775 -54.9595
-3.05681 -54.8749
-1.91881 -55.1368
-0.616315 -55.0887
0.719778 -55.0662
1.9368 -55.0136
3.01394 -54.9282
3.99465 -54.7035
5.06089 -55.0263
6.0673 -55.0785
7.32118 -54.8708
8.46137 -54.8113
9.7773 -54.7278
11.1175 -54.9321
12.4034 -55.0271
13.4995 -55.0949
14.7841 -54.917
15.8847 -55.103
17.0017 -55.2477
17.9509 -54.8802
19.0019 -54.7488
20.0189 -54.8335
21.1828 -54.3714
22.0313 -54.9188
23.7645 -55.1707
24.6606 -54.6243
26.0205 -54.3958
26.9105 -54.8607
27.9926 -55.1011
29.4112 -55.0862
30.3939 -54.6083
31.2112 -55.3202
32.2448 -55.1785
33.5393 -54.664
34.5664 -55.0142
35.4877 -55.4656
37.1094 -55.1259
38.3138 -54.7025
39.4317 -55.1131
40.4434 -55.3473
41.4543 -55.3519
42.5505 -54.7785
44.1714 -54.9359
45.375 -54.9165
46.7181 -55.1236
47.7581 -55.1552
48.5112 -54.4712
49.3477 -55.1768
50.3438 -54.7706
51.5526 -55.1277
52.6647 -55.0238
53.6564 -55.1161
55.123 -54.5578
56.2126 -54.4179
-56.4993 -53.583
-55.6951 -54.2014
-54.7428 -53.8166
-53.6556 -53.8536
-52.5716 -54.1292
-51.2004 -54.0457
-50.1601 -54.0243
-49.0464 -53.77
-47.9263 -53.5089
-46.8845 -53.6345
-45.9134 -54.0823
-44.0625 -53.8394
-42.955 -53.8879
-41.7589 -53.8128
-40.5899 -54.2735
-39.9091 -53.4236
-38.6262 -53.9035
-37.5585 -53.9261
-36.1001 -53.7693
-35 -53.983
-33.976 -53.8235
-32.6767 -53.7259
-31.4314 -53.512
-30.2273 -53.5741
-29.1218 -53.3031
-28.1771 -54.1649
-27.0748 -53.9261
-26.0016 -54.0496
-24.7374 -53.7594
-23.8148 -54.1623
-22.583 -53.9702
-21.369 -54.2401
-19.7634 -53.8159
-18.6651 -53.7548
-17.6162 -53.5331
-16.5891 -54.0908
-15.5094 -53.6462
-14.3811 -53.7532
-13.3976 -53.4665
-12.396 -53.5621
-11.3466 -54.1693
-10.1432 -53.7994
-9.07284 -53.7429
-7.88552 -53.7837
-6.78445 -53.7197
-5.46308 -53.7069
-4.07596 -53.7108
-2.89514 -53.6855
-1.91511 -54.1315
-0.774835 -53.9975
0.533013 -53.7461
1.94414 -53.9618
2.98918 -53.928
4.05642 -53.3524
5.07612 -53.7156
6.05199 -54.0057
7.26228 -53.8097
8.42832 -53.7406
9.45628 -53.4015
10.6705 -53.6267
12.0499 -53.9059
13.3759 -53.8864
14.4374 -53.7846
15.5683 -53.6062
16.4546 -54.171
17.2899 -53.3793
18.3178 -53.4772
19.2886 -53.742
20.9165 -53.3871
22.4817 -54.0263
23.5071 -54.2018
24.5292 -53.4477
25.7206 -53.3656
26.8342 -53.8207
27.7525 -53.4215
29.3106 -54.0881
30.1272 -53.4157
31.1743 -53.5481
32.4424 -54.011
33.6787 -53.6028
34.7718 -53.7889
35.8404 -54.3127
36.9937 -53.929
38.7359 -53.7434
39.7681 -54.0999
40.6805 -53.6785
41.5985 -54.3175
42.3992 -53.6758
43.4915 -53.895
45.0626 -53.8575
46.2397 -54.1969
47.2486 -54.238
47.9972 -53.3965
49.3969 -53.194
50.4216 -53.6433
51.6648 -53.9905
52.8959 -53.9976
53.9542 -54.0492
55.0292 -53.4753
56.6122 -53.4718
-56.6248 -52.5393
-55.6066 -53.0019
-54.5726 -52.8044
-53.2846 -52.7583
-52.031 -52.7738
-50.9607 -52.9048
-49.8963 -52.6453
-48.8277 -52.6771
-47.7689 -52.4874
-46.485 -52.5465
-45.5755 -53.0919
-44.4927 -52.5977
-43.4716 -52.9695
-42.2973 -52.7336
-40.8512 -53.042
-39.5418 -52.3797
-38.3897 -52.6846
-37.3908 -52.8417
-36.379 -52.8132
-35.3829 -52.8547
-34.306 -52.7942
-33.0809 -52.762
-31.9341 -52.6362
-30.703 -52.548
-29.6463 -52.4086
-28.6437 -52.4071
-27.6961 -52.8726
-26.1349 -52.9192
-24.9543 -52.4054
-23.2868 -52.803
-22.2935 -52.5982
-21.3508 -53.0895
-20.2984 -52.5893
-19.3053 -52.5013
-18.2908 -52.7234
-16.5784 -53.0549
-15.6357 -52.6391
-14.0242 -52.6917
-12.7914 -52.455
-11.8192 -52.7352
-10.8074 -53.0485
-9.70505 -52.7621
-8.7185 -52.5603
-7.6877 -52.6861
-6.47879 -52.3958
-5.37787 -52.3378
-4.37435 -52.708
-2.93501 -52.645
-1.54798 -52.9978
-0.603432 -52.5739
0.436763 -52.6633
1.56669 -52.8079
2.71414 -52.4492
3.72031 -52.4004
4.84707 -52.3413
5.76961 -52.889
6.94265 -52.828
8.45346 -52.4979
9.54313 -52.4048
10.6613 -52.4827
11.6361 -52.8443
12.8205 -52.6091
14.0926 -52.5713
15.1268 -52.6798
16.2019 -52.3118
17.2949 -52.3406
18.3026 -52.3309
19.4009 -52.6068
20.5932 -52.4149
22.0864 -52.8897
23.3198 -52.7542
24.2146 -52.1856
25.3078 -52.1423
26.2954 -51.9966
27.2843 -52.2911
28.7056 -52.9213
29.8253 -52.4105
31.6577 -52.5852
32.7801 -52.695
33.6857 -52.2508
34.6094 -52.7068
35.645 -53.2543
36.6439 -52.836
37.8725 -53.0177
39.2816 -52.8768
40.4874 -52.4804
41.5457 -53.1297
42.4606 -52.6575
43.7956 -52.7336
44.9393 -52.7233
45.9211 -52.2833
47.0624 -52.9325
48.5183 -52.4065
49.5476 -52.1021
50.5797 -52.4329
51.6252 -52.7106
52.758 -52.8403
54.0643 -52.7467
55.2193 -52.2494
56.2509 -52.4804
-56.7478 -51.5387
-55.7757 -52.0089
-54.6762 -51.5146
-53.6838 -51.6717
-52.6869 -51.8319
-51.2316 -51.8185
-49.9123 -51.283
-48.5862 -51.4957
-47.2979 -51.379
-46.2132 -51.4347
-45.2064 -51.7364
-44.1894 -51.6131
-43.1295 -51.3321
-42.1645 -51.7002
-41.1735 -51.8884
-39.937 -51.3017
-38.8078 -51.6206
-37.7866 -51.7806
-36.2644 -51.7378
-35.1824 -51.782
-33.8693 -51.7513
-32.8622 -51.7692
-31.8889 -51.4849
-30.8898 -51.5253
-29.6656 -51.2928
-28.4217 -51.3017
-27.2605 -51.4111
-26.1865 -51.5464
-24.9977 -51.1242
-23.8318 -51.9291
-22.757 -51.2544
-21.3747 -51.9601
-20.5029 -51.189
-18.9414 -51.3841
-17.8395 -51.7657
-16.8298 -52.0617
-15.6232 -51.5432
-14.5773 -51.5329
-13.37 -51.4266
-12.4315 -51.0049
-11.3952 -51.7312
-10.475 -51.2226
-9.45012 -51.6816
-8.14508 -51.5765
-6.59316 -51.1339
-5.58889 -51.3338
-4.5051 -51.4247
-3.45104 -51.6677
-2.3154 -51.5814
-1.13778 -51.4296
0.24392 -51.3645
1.46972 -51.5088
2.79171 -51.3503
3.8705 -51.4031
4.99899 -51.2379
5.81978 -51.8535
7.01739 -51.7883
8.67414 -51.2702
9.74592 -51.3415
10.7369 -51.1461
11.7662 -51.7843
13.46 -51.6182
14.7354 -51.4854
15.7675 -51.3948
16.8669 -51.2541
17.9318 -51.4046
19.2087 -51.5171
20.2857 -51.3945
21.048 -50.6874
21.5874 -51.9649
22.5446 -51.6188
23.5287 -51.4342
24.6643 -51.1863
25.9229 -51.0543
27.7361 -51.2934
28.8526 -51.8305
29.6387 -51.1684
30.7405 -51.5176
31.8019 -51.543
33.5646 -51.2537
34.874 -51.1804
35.8088 -51.9005
37.519 -51.6528
38.4204 -52.1749
39.4626 -51.765
40.4438 -51.4592
41.4978 -52.0535
43.0168 -51.7648
43.9243 -51.218
45.0102 -51.583
45.9547 -50.83
46.8113 -51.7795
48.1271 -51.3115
49.2086 -51.1398
50.2621 -50.9578
51.5248 -51.6103
52.9671 -51.7584
54.163 -51.6563
55.3878 -51.0613
56.4153 -51.4925
-56.6349 -50.1593
-55.3777 -50.348
-54.2278 -50.4763
-53.237 -50.6388
-52.1294 -50.7508
-51.1169 -50.2739
-49.2705 -50.4411
-48.2538 -50.4329
-47.2823 -50.1679
-46.2109 -50.0639
-45.29 -50.6248
-44.2815 -50.4613
-43.1676 -50.3182
-42.0725 -50.541
-41.0957 -50.2785
-39.4321 -50.4342
-38.431 -50.3946
-37.3089 -50.8109
-36.2831 -50.4977
-35.2438 -50.524
-34.3539 -50.0614
-33.3012 -49.9651
-31.5295 -50.4596
-30.2341 -50.3598
-28.9871 -50.4432
-27.8368 -50.4687
-26.806 -50.2453
-25.6969 -50.2964
-24.6317 -50.1905
-23.4269 -50.4388
-22.3224 -50.0139
-21.5226 -50.9076
-20.4161 -50.1106
-19.0024 -50.0539
-18.0752 -50.7538
-16.7431 -50.7286
-15.7012 -50.3135
-14.568 -50.4476
-13.5862 -49.9533
-12.5218 -49.9356
-11.4445 -50.4928
-10.0779 -50.3081
-8.39028 -50.5845
-7.3546 -50.4257
-5.89597 -50.2521
-4.87354 -50.2618
-3.68798 -50.4355
-2.58749 -50.4118
-1.56574 -50.1308
-0.485807 -50.4799
0.705638 -50.4146
1.99727 -50.6214
3.25044 -50.4255
4.28482 -50.3033
5.50601 -50.2238
6.73743 -50.222
7.53116 -50.9304
8.57218 -50.2664
9.57751 -50.1514
10.7772 -50.1253
11.7556 -50.4747
12.7384 -50.8251
13.7106 -50.5482
14.9283 -50.2059
15.9257 -50.3998
17.3561 -49.9605
18.5328 -50.4097
19.5852 -50.3636
20.503 -49.5919
22.0366 -50.2261
23.1215 -50.4989
24.2994 -50.0678
25.5156 -50.0022
26.7862 -50.3448
27.851 -50.2218
28.8665 -50.3852
30.3534 -50.2361
31.4116 -50.3296
32.6992 -50.5793
33.8835 -50.3105
34.8588 -50.0669
35.83 -50.5582
37.2697 -50.5227
38.334 -50.7614
39.3768 -50.6406
40.5932 -50.0204
41.347 -51.0273
42.2034 -50.2537
43.2423 -50.4228
44.7997 -50.4651
46.0927 -49.5657
47.0728 -50.7541
48.5385 -50.3946
49.6093 -50.0631
50.6942 -49.9419
51.9567 -50.6554
53.2941 -50.5676
54.5255 -50.4771
55.6793 -50.0742
56.7099 -50.2041
-56.9449 -49.1199
-55.6096 -49.0963
-54.4778 -49.498
-53.5935 -48.9157
-52.5634 -49.5181
-51.0972 -49.253
-49.9362 -49.4832
-48.8981 -49.5046
-47.9046 -49.2194
-46.7499 -49.1598
-45.192 -49.4466
-43.6928 -49.0683
-42.6481 -49.269
-41.6143 -49.2948
-40.3479 -49.5788
-39.3357 -49.3393
-38.2599 -49.217
-37.0268 -49.6978
-35.8747 -49.3189
-34.8642 -49.0692
-33.9147 -48.7377
-32.8448 -48.9891
-31.717 -49.1163
-30.7032 -49.1174
-29.7247 -49.3612
-28.4554 -49.5162
-27.3618 -49.0548
-25.8076 -48.9799
-24.8489 -48.7091
-23.9912 -49.3484
-22.8552 -48.9743
-21.4334 -49.1779
-20.3928 -49.0867
-19.0957 -49.0169
-17.9932 -49.6821
-16.9575 -49.7328
-15.8522 -49.1335
-14.7189 -49.3707
-13.2958 -48.8877
-12.016 -48.918
-10.8386 -49.2688
-9.7972 -49.2485
-8.68997 -49.5588
-7.74923 -49.1223
-6.75142 -49.2623
-5.38701 -49.396
-4.35755 -49.328
-3.24676 -48.9752
-2.13491 -49.2569
-0.814921 -49.3996
0.424073 -49.4116
1.41259 -48.6752
2.05656 -49.5895
3.36265 -49.38
4.57217 -49.2592
5.78835 -49.2293
6.97012 -49.0969
8.2794 -49.2284
10.0062 -49.2208
11.1773 -49.1595
12.115 -49.5088
13.1255 -49.4239
14.1936 -49.4343
15.2567 -48.9902
16.2569 -49.2111
17.263 -48.8933
18.3715 -49.4188
19.4608 -49.1187
20.9086 -48.6613
21.999 -49.0622
23.4348 -49.5542
24.8753 -49.0877
25.9448 -49.0469
27.0298 -49.3138
27.9993 -49.0274
29.0643 -49.3378
30.2774 -48.9794
31.3127 -49.0418
32.472 -49.1086
33.476 -49.1783
34.6111 -49.0675
35.6392 -49.404
36.5705 -48.9969
37.7184 -49.5108
38.8265 -49.5678
39.857 -49.2953
41.5016 -49.5264
42.465 -49.0955
43.5273 -49.3196
44.9965 -49.429
46.1577 -48.4874
47.1609 -49.5194
48.194 -49.3427
49.6132 -49.06
50.7459 -48.8392
51.9561 -49.3764
52.8723 -48.7925
53.7666 -49.549
55.1089 -49.1696
56.3218 -49.2616
-57.1852 -47.8519
-56.1911 -48.1489
-55.0351 -48.2551
-54.0112 -47.7962
-52.7832 -48.1651
-51.16 -47.9972
-50.1162 -47.9748
-49.0201 -48.5083
-48.0815 -48.1533
-46.9357 -47.7951
-45.9017 -48.5638
-44.3715 -47.9733
-43.3607 -47.9556
-42.1148 -48.4122
-40.7847 -48.3927
-39.5434 -47.9103
-38.4269 -47.7101
-37.4402 -48.3867
-36.443 -48.4302
-35.29 -47.9946
-33.5209 -47.7666
-32.4759 -47.9803
-31.4704 -48.1298
-30.4726 -47.8618
-29.3643 -48.113
-28.3198 -48.4819
-27.6245 -47.7508
-26.5152 -48.2739
-25.4039 -47.6035
-23.867 -48.2947
-22.2385 -48.1689
-21.1073 -48.0737
-19.8609 -48.1289
-18.7911 -47.8966
-17.6872 -48.1258
-16.7376 -48.5647
-15.6414 -47.4318
-14.5855 -48.2354
-13.6447 -47.8525
-12.6427 -47.9367
-11.4653 -48.0073
-10.0055 -48.2049
-8.88611 -48.4983
-7.60275 -48.0654
-6.57273 -48.089
-5.26786 -48.1369
-4.17265 -48.2744
-3.04141 -47.8505
-2.02914 -47.9127
-1.05051 -48.2552
-0.0087184 -48.3062
1.48753 -47.5011
2.71294 -48.3811
4.11096 -47.9816
5.06079 -48.38
6.10741 -48.0002
7.21921 -48.0851
8.2371 -48.1458
9.23794 -48.2278
10.5513 -48.2096
11.8528 -48.2258
13.413 -48.3767
14.4498 -48.3282
15.5186 -48.0084
16.7445 -48.0223
17.6864 -47.5522
18.7215 -48.415
19.9805 -48.2396
21.6335 -47.9494
22.6317 -47.8408
23.3452 -48.5374
24.3358 -47.9453
25.4645 -48.1466
26.6756 -48.2916
27.8036 -48.034
29.3261 -48.3468
30.285 -47.9537
31.2908 -47.8356
32.3034 -48.0566
33.4564 -47.4922
34.8221 -47.7294
35.901 -48.2142
37.3881 -48.3213
38.3283 -48.6909
39.1268 -47.9792
40.3888 -47.9838
41.5856 -48.3157
42.7153 -47.9602
43.7706 -47.9473
44.8896 -47.5376
45.9514 -47.3925
47.0671 -47.8418
48.2766 -48.3441
49.3906 -48.0849
50.5125 -47.8481
51.633 -48.3635
53.2986 -47.6975
54.15 -48.3222
55.1241 -47.5991
55.8662 -48.3111
-56.6191 -46.6073
-55.6 -47.2471
-54.6223 -46.9375
-53.4923 -46.441
-52.7112 -47.1561
-51.577 -46.9912
-49.9919 -46.775
-48.6183 -47.2726
-47.38 -46.4809
-46.4436 -46.8957
-45.3878 -47.3037
-44.2386 -46.7208
-43.0167 -46.8118
-42.0663 -47.2901
-40.5897 -47.305
-39.4559 -46.7725
-38.2523 -46.6621
-37.4606 -47.2917
-36.1051 -47.3918
-35.1884 -46.8924
-34.1915 -46.4523
-32.9015 -46.8983
-31.6898 -46.6868
-30.6589 -46.8827
-29.5045 -46.7363
-28.5743 -47.4365
-26.8956 -47.0072
-25.9541 -46.6645
-24.6756 -46.7893
-23.7896 -47.2652
-22.3747 -47.0921
-21.3157 -46.899
-20.342 -47.1428
-19.2052 -46.9318
-17.9966 -46.7965
-16.7655 -47.3945
-16.0722 -46.5271
-14.4693 -47.2085
-13.1201 -46.8433
-12.0821 -46.8921
-10.9381 -47.1521
-9.63579 -47.2348
-8.44744 -47.3677
-7.84461 -46.4677
-6.42527 -46.9955
-5.32862 -47.1038
-4.29618 -47.0712
-2.55361 -46.8612
-1.26601 -47.0096
-0.262991 -47.2305
0.648038 -46.7921
1.63498 -46.4991
2.65663 -46.6757
4.43213 -46.578
5.2146 -47.2751
6.17343 -46.9735
7.81189 -47.1694
8.86969 -47.2911
10.0891 -47.303
11.1007 -47.2227
12.2444 -47.0878
13.2815 -47.2153
14.3022 -47.101
15.5404 -46.8698
16.75 -46.8945
17.752 -46.4867
18.6509 -47.2003
19.658 -47.1142
20.7096 -46.8088
22.2512 -46.8896
23.5538 -47.2457
24.3906 -46.5425
25.2695 -47.0069
26.2029 -47.3727
27.7631 -47.0068
29.0007 -47.0572
29.968 -46.8095
31.0886 -46.8297
32.1907 -46.8986
33.6675 -46.4364
34.944 -46.713
36.0118 -46.735
37.0892 -47.2815
37.9435 -46.7613
38.9582 -46.7349
39.9478 -46.9548
41.0301 -46.9436
43.1533 -46.9012
44.0513 -46.4077
45.4034 -46.5494
46.8165 -46.844
47.7891 -46.6016
48.6603 -47.239
49.7194 -46.8173
50.9506 -46.9429
51.8894 -47.2856
52.9064 -46.7701
54.2877 -46.9118
55.4846 -46.4658
56.3196 -47.3205
-56.7697 -45.4153
-55.5366 -45.8723
-54.5008 -45.8882
-53.2888 -45.4338
-51.9107 -45.703
-50.7398 -46.0962
-49.6859 -45.7101
-48.1949 -45.8304
-47.1176 -45.4347
-46.0321 -45.6572
-45.1738 -46.3089
-44.3246 -45.4881
-43.1711 -45.7679
-41.5645 -45.3712
-40.8532 -46.1606
-39.9501 -45.6972
-38.5819 -45.6353
-37.3377 -45.9889
-36.1474 -46.2771
-34.9993 -45.7587
-33.9737 -45.4412
-32.9112 -45.5689
-31.9116 -45.6699
-30.9017 -45.8424
-29.5182 -45.6912
-28.1355 -46.4558
-26.833 -45.9725
-25.6699 -45.6614
-24.6696 -45.6749
-23.7356 -46.2144
-22.6454 -45.9287
-21.3632 -45.739
-20.0188 -46.1979
-18.8937 -45.8998
-17.6483 -45.5627
-16.6357 -45.4646
-15.5307 -45.5957
-14.5477 -46.0892
-13.5281 -45.7171
-12.4216 -45.8833
-10.9299 -46.0619
-9.93958 -45.9285
-8.90405 -46.4607
-8.12384 -45.2713
-6.90279 -45.8823
-5.70412 -45.9528
-4.26279 -45.9512
-2.97115 -45.9418
-1.74172 -46.0686
-0.522566 -46.0417
0.692017 -45.3372
1.95174 -45.51
3.38769 -45.8353
4.21442 -45.2501
5.14269 -45.7276
6.20212 -45.9636
7.29195 -46.1605
8.40957 -46.1413
9.49369 -46.4716
10.4293 -46.091
11.4621 -45.9178
12.5668 -45.5004
13.7065 -45.8254
15.5212 -45.6171
16.5006 -45.9033
17.5848 -45.4369
18.7311 -46.1345
19.7906 -46.1079
20.8545 -45.7142
21.921 -45.7172
23.2056 -46.2521
24.2226 -45.2984
25.3753 -45.7546
26.4409 -46.2997
27.6987 -45.8607
28.9018 -45.9678
29.9019 -45.759
31.2681 -45.7537
32.4219 -45.3617
33.6024 -45.1276
34.6591 -45.6616
36.0008 -45.5766
36.9379 -46.1479
38.1937 -45.7588
39.8226 -45.8755
40.8938 -45.9211
41.9149 -45.861
42.9299 -45.6925
43.963 -45.3751
45.0433 -45.4873
46.232 -45.964
47.2626 -45.6792
48.3849 -45.8022
49.5306 -45.5282
50.5987 -45.2784
51.556 -46.055
52.4977 -45.685
53.5582 -45.9016
54.6077 -45.804
56.4463 -45.5451
-56.6541 -44.4058
-55.6613 -44.8283
-54.6633 -44.7524
-53.6379 -44.2966
-52.372 -44.8143
-51.1706 -44.9548
-50.1744 -44.7201
-48.9064 -44.9813
-47.3322 -44.1206
-46.4176 -44.5598
-45.2196 -45.0346
-44.5852 -44.2564
-43.5219 -44.6718
-42.1822 -44.5265
-40.716 -44.6719
-39.455 -44.5739
-38.3795 -44.6312
-37.1939 -44.8362
-36.1654 -45.0224
-35.1466 -44.6657
-33.9333 -44.4434
-32.48 -44.6527
-31.447 -44.6305
-30.3861 -44.5231
-29.3738 -44.6146
-28.354 -44.6539
-27.2368 -45.0498
-26.2047 -44.7028
-25.0624 -44.6883
-23.6522 -45.2135
-22.1135 -45.0053
-21.1337 -44.6248
-20.1854 -45.029
-19.1636 -44.8257
-18.0897 -44.615
-16.7251 -44.4545
-15.5875 -44.5053
-14.4762 -44.5026
-13.2554 -44.5994
-12.2122 -44.8057
-11.2197 -45.0835
-10.0689 -44.5027
-8.92933 -44.6463
-8.03944 -44.1524
-7.0109 -44.6313
-5.62709 -44.7928
-4.32785 -44.9371
-3.19963 -44.9138
-1.73413 -45.0725
-0.665999 -45.0515
0.310791 -44.3129
1.53576 -44.4634
2.70145 -44.7994
3.61696 -44.3968
4.72855 -43.9975
5.66674 -44.7469
6.96775 -44.674
7.99836 -44.8977
9.25627 -45.1995
10.6887 -44.7463
11.8062 -44.836
12.9636 -44.1732
14.0187 -44.6154
15.2898 -44.4336
16.5117 -44.8843
17.6624 -44.3222
18.9911 -44.5865
20.2749 -44.6694
21.4084 -44.7063
22.4048 -44.4806
23.1822 -45.1355
23.8958 -44.2869
25.5204 -44.6132
27.0908 -44.852
28.2235 -44.9437
29.2221 -44.7262
30.347 -44.1888
31.4387 -44.7403
32.4187 -44.2851
33.4328 -44.1178
34.9451 -44.4172
36.0187 -44.4977
37.0614 -45.1169
38.1324 -44.6399
39.3059 -44.7513
40.4545 -44.8458
41.5819 -44.7837
43.0378 -44.3884
44.0935 -44.3615
45.1459 -44.359
46.0764 -44.8471
47.1638 -44.6349
48.287 -44.6172
49.3481 -44.5427
50.6644 -44.142
51.9357 -44.4116
53.1343 -44.9081
54.2782 -44.7927
55.3676 -44.7215
56.7364 -44.5177
-56.5977 -43.339
-55.5565 -43.5134
-54.5084 -43.7639
-53.4538 -43.2896
-52.4467 -43.6788
-51.138 -43.8426
-50.2694 -43.3393
-49.2015 -43.4759
-47.8886 -43.1898
-46.7523 -43.2046
-45.7378 -43.1162
-44.2083 -43.15
-42.9427 -43.8301
-41.4646 -43.5942
-40.4573 -43.2691
-39.4342 -43.2877
-38.1253 -43.2421
-37.0312 -43.6302
-36.0426 -43.962
-34.8967 -43.5581
-33.749 -43.2962
-32.7317 -43.5874
-31.7183 -43.5549
-30.1151 -43.5379
-29.1144 -43.4855
-28.0525 -43.6216
-26.9545 -44.0453
-25.9955 -43.7175
-24.9173 -43.5168
-24.0668 -44.3046
-22.9666 -43.9006
-21.8038 -43.6619
-20.3282 -43.6545
-18.9611 -43.8078
-17.9438 -43.5413
-16.3616 -43.129
-15.2537 -43.4678
-14.2677 -43.3
-13.1901 -43.5776
-12.0832 -43.3973
-11.2235 -44.0263
-10.5059 -43.0694
-9.27512 -43.4116
-8.14108 -43.1491
-6.91402 -43.6146
-5.79422 -43.4846
-4.45046 -43.7165
-2.82944 -43.4071
-1.6885 -43.9213
-0.637682 -43.9414
0.727079 -43.1002
1.84862 -43.4564
2.89132 -43.5072
3.93391 -43.3596
4.99102 -42.9789
5.97421 -43.7202
7.11182 -43.5166
8.29713 -43.7808
9.29574 -44.0822
10.4137 -43.7786
11.3314 -43.315
12.399 -43.2472
13.687 -43.3682
15.4015 -43.4082
16.4267 -43.8339
17.3201 -43.2645
18.6891 -43.4802
20 -42.7597
20.9672 -43.6156
22.0352 -43.49
23.5753 -43.3239
24.5945 -43.2322
25.6796 -43.6267
27.0323 -43.7848
28.0688 -43.894
29.1113 -43.6056
30.2498 -43.1695
31.2296 -43.6284
32.18 -43.2872
33.1049 -42.8788
34.0356 -43.2952
35.4303 -43.1956
36.8627 -43.8887
38.4385 -43.6625
39.3349 -43.0306
40.2781 -43.6992
41.3684 -43.4752
42.3429 -43.1538
43.5751 -43.4618
44.6946 -43.4448
45.9502 -43.7614
47.0289 -43.6408
48.2716 -43.0251
49.7457 -43.611
51.0753 -43.0265
52.0765 -43.38
52.9941 -43.8724
53.9761 -43.6049
54.968 -43.7572
56.3269 -43.5715
56.9818 -42.6777
-56.0017 -42.2086
-54.834 -42.6162
-53.465 -42.227
-52.414 -42.3007
-51.4488 -42.8602
-50.1174 -42.2106
-48.6324 -42.3132
-47.5527 -42.1235
-46.4353 -42.0339
-45.1145 -42.2424
-44.0829 -42.1406
-42.8154 -42.1279
-41.9695 -42.714
-40.9206 -42.3426
-39.9102 -42.3302
-38.8429 -42.3732
-37.6878 -42.1855
-36.7163 -42.5838
-35.4778 -42.4947
-34.2536 -42.3123
-33.1299 -42.4852
-31.7803 -42.4878
-30.2567 -42.3742
-29.224 -42.4902
-27.9454 -42.6273
-26.5832 -42.6333
-25.7058 -42.0725
-24.6499 -42.4217
-23.656 -42.8527
-22.5653 -42.8874
-21.325 -42.5243
-20.2994 -42.2135
-19.4424 -42.8857
-18.2141 -42.3697
-17.231 -42.1427
-15.5195 -42.507
-14.5467 -42.2402
-13.3072 -42.2784
-12.2045 -41.946
-11.0283 -41.9643
-9.85801 -42.2213
-8.86762 -42.4406
-7.8996 -42.0082
-6.79614 -42.4414
-5.54125 -42.3639
-4.37202 -42.2805
-3.3258 -42.1899
-2.30946 -42.1529
-1.29488 -42.4091
0.102856 -42.3047
1.95098 -42.4669
2.95775 -42.4863
3.99452 -42.1718
4.96399 -41.8809
6.35741 -42.6195
7.57272 -42.4329
8.63655 -42.2957
9.60693 -42.0788
10.3395 -42.7645
11.9394 -42.1526
13.2218 -42.2452
14.2386 -42.4052
15.3791 -42.0891
16.3704 -42.6477
17.3401 -42.2421
18.9279 -42.4835
19.9352 -41.6448
21.0267 -42.6126
21.7739 -41.9361
22.9169 -41.9789
23.9402 -42.3816
25.4138 -42.6474
26.5898 -42.3992
27.5979 -42.3516
28.7027 -42.2422
29.6968 -42.3299
30.9462 -42.2076
32.1825 -42.2429
33.7227 -42.0774
34.8492 -42.2847
36.0459 -42.2849
36.9028 -42.8128
37.9836 -42.5959
39.051 -42.0032
40.1261 -42.3632
41.2193 -42.2263
42.397 -42.086
43.607 -42.3777
44.839 -42.4513
45.8615 -42.626
47.0658 -42.5957
47.9926 -41.9786
49.2269 -42.4855
50.4389 -42.1648
51.8393 -41.9528
52.9127 -42.5843
53.9728 -42.4308
54.9993 -42.4833
56.025 -42.333
-56.8282 -41.4986
-55.8535 -40.7692
-54.4485 -40.7097
-53.2774 -41.0777
-52.1187 -41.1954
-51.1249 -41.4707
-49.4266 -41.4545
-48.4355 -41.1777
-47.4397 -41.1153
-46.436 -40.8706
-45.4763 -41.1685
-44.4295 -41.0085
-43.2554 -41.0781
-42.1491 -41.1679
-41.0965 -41.2983
-40.0023 -41.0822
-38.864 -41.3516
-37.8867 -40.9557
-35.8938 -41.3334
-34.8432 -40.9684
-33.7261 -41.4126
-32.6528 -41.3754
-31.4039 -41.4091
-30.3045 -41.2541
-29.215 -41.3434
-28.1921 -41.0388
-27.1639 -41.4966
-25.7998 -41.0588
-24.5804 -41.4083
-23.5293 -41.5265
-22.6179 -41.0335
-21.6069 -41.5392
-19.9864 -41.2337
-19.0639 -41.6149
-17.8722 -41.1316
-16.1594 -40.8736
-15.0046 -41.3267
-13.9853 -41.1925
-12.9765 -41.1779
-12.0051 -40.933
-11.0231 -40.6329
-9.85282 -41.1956
-8.68527 -41.2402
-7.38406 -41.1439
-6.2343 -41.2361
-4.92837 -41.1813
-3.94117 -41.3562
-2.86319 -41.2976
-1.84068 -41.1653
-0.605249 -41.5069
0.25894 -40.7972
1.35586 -41.5776
2.5173 -41.5897
3.39309 -40.6812
5.06367 -40.8377
5.92201 -41.6074
7.05966 -41.4633
8.25187 -40.9874
9.36028 -40.899
10.4219 -41.3265
11.7632 -41.102
13.2102 -41.221
14.4479 -41.2645
15.4732 -40.9931
16.5343 -41.6326
17.457 -41.125
18.3527 -41.649
19.4536 -40.7717
20.8476 -41.1224
22.2649 -40.8902
23.6167 -41.2387
24.6375 -41.516
25.9454 -41.5271
27.2243 -41.3318
28.2688 -41.2569
29.3518 -41.2634
30.2224 -40.7589
31.3264 -41.1951
32.4912 -41.025
33.6488 -40.9497
34.6774 -41.2041
35.7571 -41.1176
36.8386 -41.2512
37.9237 -41.5482
38.793 -40.9297
39.9953 -41.2963
41.2031 -41.113
42.7363 -40.8752
44.0409 -41.1767
45.0245 -41.4603
46.2363 -41.635
47.2028 -41.3165
48.443 -41.0612
49.7493 -41.3631
50.8196 -40.7584
51.8519 -40.7229
52.7937 -41.4198
53.8391 -41.1908
54.9353 -41.2217
56.362 -41.251
-57.0891 -40.3193
-55.9984 -39.7753
-54.7211 -39.6872
-53.3717 -40.0406
-51.8872 -39.771
-50.8526 -40.2278
-49.6574 -40.4616
-48.6868 -40.0976
-47.6648 -40.1408
-46.5741 -39.8112
-45.2297 -40.0605
-44.2118 -40.0128
-43.3485 -39.4251
-42.4975 -40.1978
-41.3639 -40.1506
-40.3088 -39.9893
-38.9921 -40.0076
-37.1829 -39.9921
-36.1047 -40.1663
-35.0541 -39.9872
-33.8345 -40.316
-32.7527 -40.2533
-31.5541 -39.791
-30.6588 -40.2918
-29.3661 -40.0266
-28.1987 -39.8804
-27.2485 -40.4873
-26.337 -39.9848
-25.2666 -40.187
-24.1851 -39.9765
-22.4202 -39.7738
-21.2538 -40.6019
-20.2378 -40.2269
-19.0932 -40.6028
-18.1028 -40.0208
-16.7688 -39.8781
-15.7027 -39.9592
-14.681 -40.3551
-13.4479 -39.9698
-12.3516 -39.8394
-11.3204 -39.6762
-10.0399 -40.1416
-9.00327 -40.0813
-7.64298 -39.7878
-6.49464 -40.1618
-5.36421 -40.2713
-4.1951 -40.113
-3.20474 -40.2881
-1.77399 -39.8032
-0.62833 -40.1907
0.308686 -39.7048
1.37596 -40.5258
2.43298 -40.4036
3.42546 -39.609
4.29416 -40.1211
5.8098 -39.8624
7.29282 -40.3646
8.38121 -39.8859
9.92161 -40.0037
10.9669 -40.4219
11.966 -40.0934
12.955 -39.5069
13.7855 -40.2459
14.8474 -39.8889
15.9209 -40.0748
17.0382 -40.1576
18.642 -40.1662
19.8431 -39.8056
20.9272 -40.0985
22.1886 -39.5604
23.0712 -40.2853
24.0978 -40.3521
25.0593 -40.0185
26.1177 -40.0724
27.2127 -40.061
28.3079 -39.8343
29.517 -39.9778
31.7284 -40.194
32.7623 -40.0095
33.8066 -39.7805
34.817 -40.1037
35.905 -40.0885
36.9314 -39.958
37.9404 -40.2919
39.5996 -40.3239
40.5997 -40.3089
41.7407 -39.909
42.8045 -39.7418
44.4053 -39.7374
45.2585 -40.3244
46.2992 -40.2214
47.7828 -40.1311
48.9278 -40.14
49.9522 -40.0742
50.9584 -39.7682
52.2703 -39.6717
53.0916 -40.3573
54.0993 -40.1629
55.2256 -40.0009
56.2791 -40.2529
-56.887 -39.3143
-55.8828 -38.7424
-54.8546 -38.5971
-53.554 -39.0477
-52.2298 -38.5841
-50.7377 -39.225
-49.695 -39.3793
-48.6477 -38.8465
-47.5135 -39.0406
-46.5955 -38.5966
-45.6049 -38.7824
-44.3255 -39.0099
-43.1314 -38.4313
-42.396 -39.1413
-41.2071 -39.1178
-39.5517 -39.0867
-38.4629 -38.526
-37.2159 -38.9534
-36.204 -38.9404
-35.1779 -38.9005
-34.1766 -38.9168
-33.1762 -38.7904
-32.0403 -38.7448
-30.7933 -38.5867
-29.8357 -38.9219
-28.0065 -38.8109
-26.9165 -39.1139
-25.724 -39.0389
-24.5408 -39.0244
-23.5525 -38.7978
-22.1292 -38.7186
-21.0649 -39.4868
-20.1132 -39.0594
-18.685 -39.1561
-17.4819 -38.8006
-16.4575 -38.9045
-15.4433 -38.8593
-14.5244 -39.322
-13.2495 -38.898
-12.2386 -38.8482
-11.2573 -38.6214
-10.1837 -39.1418
-8.66784 -38.9684
-7.69491 -38.7195
-6.43081 -39.0617
-5.07569 -39.0494
-3.91581 -39.1407
-2.86553 -39.1826
-1.95389 -38.4486
-0.691122 -38.8834
0.360271 -38.5884
1.44487 -39.2832
2.44215 -39.2228
3.93811 -38.699
5.06143 -39.151
6.1453 -38.6592
7.14201 -38.9842
8.60593 -38.7367
9.6082 -38.9725
10.6657 -39.1568
11.9918 -39.0838
12.8424 -38.4336
13.9123 -39.1348
14.9617 -38.7965
16.401 -39.0666
17.6569 -39.091
18.8984 -39.1709
20.0086 -38.7413
21.0174 -39.005
22.5184 -38.5466
23.3583 -39.181
24.3499 -38.9819
25.6111 -39.1775
26.6205 -38.7641
27.5994 -39.1141
28.5637 -38.7247
30.5342 -39.1717
31.59 -39.0449
32.6213 -38.9612
33.7498 -38.6612
34.7923 -38.8595
35.8232 -38.8777
36.9204 -38.855
38.1951 -39.1689
39.201 -39.3464
40.3354 -39.3058
41.554 -38.7544
43.0601 -38.7516
44.0598 -38.7583
45.1911 -38.9476
46.3943 -39.1243
47.4146 -39.1978
48.4796 -39.2164
49.3628 -38.7257
50.4736 -38.5867
51.4544 -38.8806
52.6935 -38.722
53.9235 -39.0157
55.2655 -38.8529
56.3885 -39.1966
-56.4531 -37.9066
-55.7191 -37.1266
-54.6789 -37.1872
-53.7793 -37.9147
-52.5778 -37.6187
-51.3057 -37.5815
-49.6896 -38.3462
-48.6166 -37.7082
-47.6307 -37.9387
-46.205 -37.6339
-45.2 -37.6414
-44.0871 -38.0232
-42.8455 -37.4139
-41.9885 -38.0265
-40.9162 -38.1508
-39.8886 -37.9109
-38.6648 -37.2712
-37.7525 -37.7532
-36.6534 -37.8728
-35.3976 -37.3593
-33.9133 -37.6427
-32.854 -37.376