ITEM: TIMESTEP
1200
ITEM: NUMBER OF ATOMS
10000
ITEM: BOX BOUNDS pp pp pp
-9.9000000000000000e+01 9.9000000000000000e+01
-9.9000000000000000e+01 9.9000000000000000e+01
-1.9800000000000001e+01 1.9800000000000001e+01
ITEM: ATOMS x y
-98.8138 98.8815
-97.1912 -98.8979
-94.6331 -98.7687
-93.0558 -98.6497
-91.1398 98.9588
-88.9854 98.6701
-86.9044 98.9012
-84.8218 98.4997
-83.8869 -98.7697
-81.5406 -98.8146
-78.5753 -98.6473
-76.8837 98.754
-75.4699 -98.9737
-73.2787 98.8499
-71.1933 98.7562
-68.9749 98.6365
-67.3405 -98.9
-65.0434 -98.4949
-63.6364 -98.8789
-61.3302 -98.8289
-59.4111 98.8681
-58.1988 98.8321
-55.2783 -98.5903
-53.3846 98.7688
-51.5466 -98.706
-50.139 98.8059
-47.8812 -98.8897
-45.3851 98.8742
-43.2265 98.7414
-41.4608 -98.6227
-40.0832 98.7597
-37.5117 98.5717
-36.0257 -98.8037
-33.4654 -98.7237
-31.7466 98.8417
-30.2378 98.8667
-27.4346 -98.7864
-25.5211 -98.924
-23.6085 -98.9558
-21.5968 -98.7789
-19.7114 -98.6427
-17.7001 98.8871
-15.7612 -98.7107
-14.1369 98.9182
-11.5397 98.7508
-10.55 98.9667
-8.41907 -98.9965
-6.18723 -98.5288
-3.35719 98.8765
-1.83063 98.5968
0.299307 98.7956
1.95164 98.851
4.14382 -98.8993
6.0544 -98.825
7.74399 98.6439
9.39414 -98.9051
11.7477 -98.9555
13.5913 98.8941
15.8825 -98.7938
17.6067 98.7881
19.7794 -98.8602
22.0913 98.943
23.8216 -98.9464
25.8066 98.7352
27.8049 -98.9141
29.9092 -98.7648
31.8845 98.5595
33.6366 -98.8928
35.7376 -98.816
37.8033 98.622
40.0342 98.7916
41.1414 -98.9444
43.526 98.8381
45.093 98.3367
47.5767 -98.5327
49.4109 -98.8301
51.8191 -98.7686
53.2907 98.8915
55.1891 98.9414
57.458 98.709
59.4662 98.9626
61.5521 98.9198
63.3901 -98.3619
65.0789 -98.7802
67.4643 98.6355
70.0932 -98.7678
71.4073 98.9118
73.1343 98.8131
75.3494 -98.945
77.695 -98.8175
79.1529 98.8465
81.0058 -98.1826
83.045 98.5356
84.6735 -98.904
87.0474 98.8126
88.6892 -98.9697
90.8611 98.6887
93.2158 98.8217
94.6353 98.6588
96.7217 -98.8357
98.8418 -97.1292
-96.3208 -97.1581
-95.062 -97.1976
-93.0416 -96.8815
-90.9159 -96.8766
-88.9032 -97.1046
-86.9438 -97.1976
-85.1718 -97.066
-83.1181 -97.7495
-81.2339 -96.964
-79.1626 -96.9358
-76.7375 -97.0029
-75.3198 -97.1904
-73.2457 -96.9109
-71.4543 -96.6646
-69.3206 -97.1239
-67.4704 -97.07
-65.5005 -97.2365
-62.8683 -97.318
-61.8282 -97.4892
-59.0791 -97.6503
-57.2724 -96.9001
-55.4956 -96.761
-53.6053 -97.1222
-51.903 -96.8766
-49.6549 -97.0059
-47.2139 -97.2044
-45.8912 -97.1817
-43.5223 -97.0447
-41.7588 -96.7637
-39.9507 -97.3187
-37.683 -97.2459
-35.4997 -96.92
-33.465 -96.9659
-31.3051 -97.0049
-29.7984 -97.1949
-27.4246 -96.9602
-25.3933 -97.0372
-23.7458 -96.8467
-21.8598 -96.8709
-19.648 -96.8286
-17.6062 -96.7558
-16.0344 -96.9818
-13.8935 -97.4731
-11.582 -96.7655
-9.50487 -96.9845
-8.04482 -97.1603
-5.83648 -96.8213
-4.14436 -96.7417
-2.13381 -97.3785
-0.118724 -96.8558
2.04013 -97.2834
4.09176 -97.1909
6.3667 -97.0067
7.76975 -96.9194
10.1109 -96.9703
11.8449 -97.1378
14.108 -96.9604
16.1115 -96.7072
17.7292 -97.3618
19.9732 -96.9381
22.0923 -97.3108
23.9545 -96.7366
25.7779 -97.218
27.8172 -97.4706
29.9191 -96.9209
31.5982 -97.3012
33.5392 -97.0746
35.5112 -97.4468
37.7533 -97.3713
39.651 -96.994
41.8009 -97.3882
43.5831 -97.2375
45.1888 -97.4335
47.922 -97.3187
49.5627 -96.8041
51.7389 -96.6188
53.256 -96.7396
55.1421 -96.9064
57.3572 -97.5534
59.292 -97.4615
61.374 -96.9474
63.5052 -96.6575
65.1619 -97.1134
67.7441 -96.9729
69.0325 -96.7471
70.8834 -96.7808
73.6353 -97.0129
75.4721 -97.4553
77.2751 -97.2481
79.3379 -97.1177
81.2573 -96.9351
83.1164 -97.5024
84.8862 -96.4959
86.6176 -96.9559
89.1765 -97.509
90.2875 -97.0851
93.3948 -96.8058
95.4626 -96.6496
97.0518 -97.0966
-98.9683 -95.024
-97.202 -95.2311
-95.129 -95.0112
-93.0347 -95.2869
-91.1202 -94.9472
-89.5352 -94.8725
-87.8017 -94.6744
-85.2423 -94.4851
-83.4056 -95.208
-81.5017 -95.2353
-79.2688 -95.0799
-77.4893 -94.8455
-74.6574 -95.0865
-73.1484 -95.6585
-71.2581 -95.3345
-69.5758 -94.6869
-67.3964 -94.9038
-65.4971 -95.1102
-63.3989 -95.6009
-61.5544 -94.742
-59.2096 -95.1211
-57.3171 -94.9611
-55.2328 -95.3684
-53.8146 -94.9434
-51.3804 -94.8763
-48.8964 -95.248
-47.5387 -94.949
-46.0123 -95.604
-43.5208 -95.0977
-41.8194 -95.2056
-39.6397 -95.2573
-37.061 -95.6111
-35.668 -95.1061
-33.3079 -94.6804
-31.5752 -95.331
-30.0042 -94.4128
-27.5601 -95.1643
-25.6773 -95.1302
-24.0879 -94.8148
-21.7733 -95.096
-19.6202 -94.8318
-18.3411 -94.7068
-16.1953 -94.7921
-13.7946 -95.3419
-12.0053 -95.2921
-9.88719 -94.8079
-8.3114 -95.2473
-5.54088 -95.138
-3.4805 -95.4209
-2.24652 -94.9338
0.113301 -94.3329
2.01341 -95.4048
4.44485 -95.2398
6.10308 -95.0851
7.50775 -94.5878
10.3136 -94.7343
12.4291 -95.395
13.7843 -95.2725
15.3184 -95.1152
18.1337 -94.9006
19.6047 -94.5072
22.0649 -95.0371
23.7816 -95.0292
25.6124 -95.2786
27.5997 -94.9545
29.6301 -94.7179
31.6312 -94.5178
33.9232 -94.9022
35.8085 -95.3411
37.4127 -95.052
39.4878 -94.7948
41.5796 -95.2652
43.4908 -95.1872
45.413 -95.1988
47.5331 -95.3612
49.7703 -94.8837
51.7082 -95.3193
53.6018 -95.0192
55.1785 -95.0872
57.4781 -95.2428
59.5114 -95.4652
61.5749 -95.4052
63.4842 -95.3239
65.4077 -95.1224
67.5071 -95.1683
69.5322 -95.2805
71.0943 -94.8656
73.5407 -95.1323
75.3616 -95.2263
77.2698 -94.8294
79.056 -95.0068
81.3094 -95.3263
83.3007 -94.747
85.45 -95.1981
86.995 -95.0115
89.0836 -94.7241
91.3236 -94.6975
92.8088 -95.4274
95.5328 -95.1873
96.8915 -94.7673
-98.9247 -92.8106
-97.0199 -93.0577
-95.0397 -93.0338
-93.4973 -93.4877
-90.752 -93.1858
-88.9538 -93.0699
-86.7037 -93.6831
-85.7238 -92.982
-83.3142 -93.026
-81.3043 -93.0702
-79.4251 -93.0746
-77.4094 -93.4113
-75.4619 -92.6874
-73.5281 -92.4637
-71.5205 -92.8809
-69.5333 -93.044
-67.5575 -92.9906
-65.0427 -92.9456
-63.0286 -93.1127
-61.6876 -93.5805
-59.9567 -92.8127
-57.5756 -93.1489
-55.1638 -92.9904
-53.641 -92.835
-51.7966 -93.4672
-49.6113 -93.1986
-47.6686 -93.0936
-45.275 -93.2048
-43.5127 -93.2903
-41.7286 -92.6644
-39.647 -93.09
-37.5906 -93.1043
-35.6597 -92.9121
-34.0925 -93.3579
-31.023 -93.2864
-29.7782 -92.8117
-27.4454 -93.1474
-25.7466 -93.2522
-23.6197 -93.0423
-21.4172 -93.3878
-20.0006 -93.4397
-17.8687 -93.1612
-15.6679 -93.2231
-13.6773 -92.9876
-11.5459 -92.7239
-9.912 -93.2538
-7.7714 -93.184
-5.78505 -93.5104
-3.47232 -92.9159
-1.97337 -92.9663
0.118969 -92.8526
1.71975 -92.8374
4.04662 -93.3466
5.65014 -92.9415
8.2262 -93.2308
9.56914 -93.1382
11.9431 -93.1379
14.1071 -93.3521
15.5117 -93.2297
17.8688 -92.8265
20.1831 -92.7487
21.6872 -92.6343
23.7469 -93.3485
26.0806 -92.7934
27.8495 -92.7708
29.4834 -92.5307
31.6138 -93.0286
33.4583 -92.8641
35.5538 -92.9518
37.8553 -93.27
39.7857 -92.5572
41.7738 -92.9261
43.2279 -92.8434
45.3449 -93.3346
47.8199 -93.2833
48.9479 -93.358
51.4952 -92.7238
53.3802 -92.556
55.4568 -93.3044
57.1698 -92.7145
59.6605 -92.9398
60.9184 -93.1329
63.4925 -93.0725
65.1631 -92.6414
67.7837 -92.8483
69.0267 -93.1855
71.7292 -93.1391
72.936 -92.5154
75.0589 -92.7545
76.8123 -92.8089
79.2025 -92.9743
81.5199 -93.2856
83.1147 -92.5027
85.577 -93.0707
86.8395 -93.0387
89.6274 -93.1135
91.2535 -93.3459
92.5167 -92.8758
94.8408 -93.4221
96.8552 -93.0534
98.895 -91.0869
-96.6908 -91.4947
-95.1151 -91.0722
-92.9947 -91.3976
-91.0689 -91.035
-88.5921 -91.4334
-87.0183 -90.5758
-85.4135 -91.276
-82.6616 -91.142
-80.8307 -91.3866
-79.2694 -91.1117
-77.4525 -91.1078
-75.8339 -91.3721
-73.5934 -91.4311
-71.3624 -90.6936
-69.3676 -91.2356
-66.7772 -91.1199
-64.7388 -90.9886
-63.5594 -91.5702
-61.4026 -91.1304
-59.1443 -90.8206
-58.1434 -91.0553
-55.7331 -91.1092
-53.5479 -91.247
-51.6846 -90.7057
-49.544 -90.5977
-47.2837 -91.0776
-45.3463 -91.1302
-44.1037 -91.2088
-41.5708 -90.9066
-39.5293 -90.9836
-37.9025 -90.8875
-35.5452 -90.6356
-33.6326 -91.0881
-32.002 -91.0293
-29.2354 -91.4813
-27.6982 -91.0484
-25.724 -91.1709
-23.7157 -90.9243
-22.0956 -91.378
-20.0581 -91.1742
-17.8559 -90.7134
-15.7164 -91.207
-14.2183 -91.1684
-12.2552 -91.4546
-10.3188 -90.8571
-7.90024 -91.1595
-6.33851 -91.0214
-4.17773 -91.2999
-1.81755 -90.9451
0.280699 -91.1743
2.01719 -91.2108
3.44763 -90.8754
6.198 -90.6934
8.14623 -91.3215
9.72518 -91.5216
11.7976 -90.9466
13.9702 -90.6658
15.6737 -91.2419
17.8645 -91.3664
20.038 -91.6092
21.9087 -90.6736
24.0858 -91.2958
25.8417 -91.4816
27.7582 -90.6161
29.905 -90.8363
31.7801 -91.0064
33.8765 -90.8775
35.174 -90.7527
37.6016 -90.5878
39.563 -91.1935
41.0578 -90.9729
43.7418 -91.0518
45.4238 -90.5987
47.5592 -91.4509
49.3493 -91.0943
51.6348 -91.0837
53.5429 -90.6244
55.739 -90.6312
57.4512 -91.1298
59.6608 -91.0767
61.6636 -90.9597
63.9699 -91.2447
65.5045 -91.6742
67.4808 -91.65
69.3486 -90.981
71.4583 -91.2649
73.3734 -91.2975
75.1353 -90.998
77.2549 -91.1078
79.519 -91.121
81.1621 -91.2753
82.4534 -91.1412
84.7978 -90.7235
86.8357 -91.1
89.4052 -91.0642
90.5362 -90.6966
93.2753 -91.2518
95.0607 -90.9008
97.1285 -90.9391
98.9681 -89.4477
-96.9135 -89.2357
-94.8918 -89.4205
-93.4842 -88.9568
-90.6734 -88.7699
-88.8893 -89.3802
-86.6743 -88.7027
-85.2741 -88.934
-83.3074 -89.4005
-81.02 -89.4452
-79.0311 -89.0302
-77.2433 -89.1511
-75.2589 -89.2962
-73.4648 -89.4723
-71.5371 -88.7994
-68.9453 -88.8487
-67.6717 -89.2678
-65.0508 -88.8623
-63.3559 -89.4366
-61.5461 -89.0642
-59.2463 -88.9254
-57.3721 -88.8516
-55.0062 -89.1024
-53.6279 -89.3669
-51.4016 -89.2191
-49.4367 -89.1567
-47.4808 -89.163
-46.0437 -88.7465
-43.8103 -88.867
-41.768 -89.0084
-40.2092 -89.1478
-37.3443 -89.0507
-35.5342 -89.007
-33.92 -88.7044
-31.4947 -89.18
-30.0912 -89.1334
-27.6997 -89.2152
-25.5467 -88.8723
-24.0518 -89.0531
-21.9642 -89.249
-19.7069 -89.743
-17.5575 -89.4864
-15.7812 -88.9374
-13.7308 -89.1879
-11.691 -89.1134
-9.84339 -89.3871
-7.70681 -88.7244
-5.81178 -89.1793
-3.67972 -89.2252
-1.62161 -89.1713
0.265696 -90.0443
2.01439 -89.4735
3.85668 -89.2768
6.25794 -88.6909
8.0469 -89.2317
9.66142 -89.2262
11.5483 -89.6152
14.2633 -89.1145
15.9566 -89.4547
17.6737 -89.3381
19.7893 -89.2907
21.3602 -89.3123
23.8602 -89.2853
25.5856 -88.9105
27.4323 -89.2141
29.9332 -88.865
32.0454 -89.4059
33.0006 -88.8067
35.0531 -88.923
37.5558 -88.8064
39.4364 -88.7265
41.4436 -88.9127
43.8244 -88.8963
45.7977 -88.5975
47.578 -89.2702
49.4394 -88.7557
51.9984 -88.9351
53.5116 -89.4149
55.7403 -88.8061
57.2745 -89.3907
59.5581 -89.241
61.1243 -89.0278
63.631 -89.2671
65.3493 -89.2835
67.0274 -89.2328
69.3427 -88.5909
71.0118 -88.877
72.8963 -89.3844
75.0053 -88.3291
77.1874 -89.2094
79.0089 -89.0502
81.0262 -88.7602
82.6338 -88.9351
84.4833 -88.9079
86.8698 -89.332
89.712 -88.9027
91.0009 -89.294
93.0961 -88.8558
95.1633 -88.9726
96.7654 -89.0847
98.8553 -87.303
-97.1856 -87.2817
-95.0746 -86.7751
-93.0311 -87.1324
-90.6645 -87.0727
-89.568 -87.009
-86.7844 -87.2994
-85.2367 -87.2867
-83.1891 -87.4091
-80.2838 -87.5655
-79.2701 -87.6125
-77.274 -87.3428
-75.2152 -87.1218
-73.1443 -87.583
-71.2997 -87.3146
-69.1657 -87.1813
-67.1635 -87.0238
-65.3881 -87.3191
-63.125 -87.2383
-61.4336 -87.3982
-59.1081 -87.4673
-57.2658 -86.9514
-55.0552 -87.2424
-53.3552 -87.0839
-51.8548 -87.3396
-49.8016 -87.0157
-47.1646 -86.95
-45.8701 -87.3201
-44.0766 -87.204
-41.5165 -86.8563
-39.1331 -86.79
-37.3855 -87.0394
-35.9132 -87.4228
-33.7653 -86.9788
-31.4305 -87.064
-29.4982 -87.4973
-27.4858 -87.2855
-25.8317 -86.9387
-23.0828 -86.9925
-21.5538 -87.0723
-20.0128 -87.4038
-18.0583 -87.3122
-16.0573 -86.6324
-13.8471 -87.6139
-11.8599 -87.3096
-10.0304 -87.3704
-7.7546 -87.0111
-5.4705 -87.1854
-4.56008 -86.7485
-1.88106 -87.2143
0.0022941 -86.9943
2.26663 -86.8863
4.58354 -87.2335
6.08366 -86.9253
7.64588 -86.7413
10.0978 -87.2771
11.7205 -87.3443
13.8928 -86.9639
15.9823 -86.9029
17.7376 -87.5601
19.8942 -87.0447
21.898 -86.8915
23.7702 -87.055
25.7631 -86.6356
27.5117 -87.0309
29.9557 -87.084
31.2125 -87.0499
33.449 -87.0945
35.6081 -86.6563
37.2391 -86.9305
39.6685 -87.497
41.7957 -87.231
43.2595 -87.0999
45.4747 -86.875
47.9233 -87.3895
49.4254 -87.1337
52.0551 -86.8903
53.5399 -86.8832
55.752 -87.2249
57.4035 -86.9527
59.2831 -87.1082
61.4262 -87.4804
63.5859 -86.6755
65.3116 -87.5117
67.0049 -87.0167
69.6381 -86.6963
70.6788 -86.8564
73.3703 -86.962
75.6039 -87.2886
77.464 -86.7484
79.7235 -87.2251
81.2264 -87.0469
82.9947 -86.8642
85.0637 -86.8805
86.6508 -87.2858
89.3 -87.2136
91.0715 -86.873
92.9884 -87.1896
95.3852 -86.9568
97.1661 -87.0833
98.5799 -84.8401
-96.9564 -85.2626
-95.616 -85.083
-93.4049 -85.3668
-90.8481 -85.6506
-89.2504 -85.4011
-87.4792 -85.01
-85.155 -85.0539
-83.0274 -85.0054
-81.0072 -85.2252
-79.3843 -85.3732
-76.9561 -85.3039
-75.2361 -85.4019
-72.8313 -85.3811
-71.0574 -85.2295
-69.7052 -85.0817
-67.4273 -85.7804
-65.3692 -84.9731
-63.3877 -85.1198
-61.3888 -85.3729
-59.1648 -85.1223
-57.5131 -85.54
-55.1322 -84.9793
-52.9526 -85.2641
-51.3461 -84.9988
-49.8884 -85.5149
-47.1195 -85.2003
-45.82 -85.0891
-43.7396 -84.8122
-41.1587 -85.2466
-39.7802 -85.1773
-37.6545 -85.2776
-35.453 -84.9011
-33.6998 -85.1119
-32.1874 -84.8062
-29.4858 -84.702
-27.8136 -84.8588
-25.5789 -84.873
-23.7117 -84.9319
-21.9122 -85.1502
-19.7361 -84.715
-17.9963 -85.7234
-15.8658 -85.2794
-13.9014 -84.8031
-12.1335 -85.0398
-9.88718 -85.063
-7.83761 -85.3608
-5.71578 -85.2327
-4.04397 -85.5068
-2.03364 -85.0824
0.284278 -85.2822
1.89025 -85.2139
4.19754 -85.7171
5.99716 -85.0889
7.42137 -85.4212
9.99383 -85.348
12.0794 -85.4959
13.7102 -85.4329
15.4863 -85.5734
17.7479 -85.2265
20.0072 -85.3563
21.9879 -84.7917
23.8215 -84.5339
25.7016 -85.135
27.5984 -85.5001
29.6938 -85.6888
32.3065 -85.6524
34.017 -85.3429
35.7006 -84.7236
37.4178 -85.7322
39.8253 -84.144
41.579 -84.8587
43.5833 -84.8911
45.5168 -85.0029
47.6193 -84.9478
49.3932 -85.1228
51.711 -85.0449
53.2931 -85.1774
55.3242 -85.1476
57.1491 -85.1656
59.8372 -85.0685
61.4978 -85.0341
63.6218 -85.4986
65.2851 -85.3372
67.441 -85.3904
69.4262 -85.4706
71.258 -85.0717
72.9175 -85.222
75.2738 -85.1028
77.1426 -85.3848
79.179 -85.3739
81.2181 -85.015
83.2726 -84.8673
84.9141 -85.3655
86.9092 -85.0776
89.2996 -85.0753
90.8107 -84.94
92.8366 -85.1685
94.8761 -85.04
96.3275 -85.1807
-98.9953 -83.5115
-96.8322 -82.8905
-95.4251 -82.7179
-92.6802 -83.0836
-91.0132 -83.3094
-89.7522 -83.545
-87.0546 -83.2329
-84.9988 -82.8605
-83.0339 -83.2034
-80.8243 -83.5026
-79.7739 -82.775
-77.2878 -82.7626
-75.8816 -83.0341
-72.6782 -83.515
-71.4148 -83.1925
-69.4187 -83.3446
-67.2941 -83.1742
-65.5127 -83.4126
-63.4727 -83.254
-61.3195 -83.423
-59.9692 -83.2119
-57.3407 -82.9181
-55.3729 -82.7463
-53.7212 -83.0597
-51.4246 -83.16
-49.3361 -83.4119
-47.0293 -83.0875
-45.5265 -83.2272
-43.2342 -83.0496
-42.1027 -83.359
-40.0412 -83.3034
-37.498 -82.9185
-35.6788 -83.0201
-33.5248 -83.5374
-31.6977 -83.4864
-29.8105 -83.7462
-27.5128 -82.9517
-25.7172 -83.5294
-23.5351 -83.2151
-22.4051 -82.7711
-19.5709 -83.3769
-17.9169 -83.5059
-15.8175 -83.2097
-13.4743 -83.1452
-12.4466 -82.831
-10.4042 -83.0102
-7.98836 -83.0639
-5.5802 -83.2578
-3.98138 -83.6039
-2.11872 -83.2658
0.329044 -83.2126
1.76876 -83.0034
3.90884 -82.9395
5.92974 -82.8842
7.88513 -83.148
10.1226 -83.3053
11.6364 -83.6843
14.09 -83.0292
15.8215 -83.2191
17.9331 -83.1127
19.9202 -82.8958
21.969 -83.1585
23.9625 -83.4299
26.0163 -83.4349
27.6979 -83.6556
30.0246 -83.2283
31.647 -82.8562
33.4175 -83.3785
35.653 -83.0075
37.5118 -82.9004
40.0068 -83.0598
41.5538 -82.7681
43.5685 -83.7364
45.5819 -83.1562
47.6175 -83.0651
48.9577 -83.1958
51.3448 -83.2589
53.1481 -83.5569
55.773 -82.9802
57.5179 -83.1863
59.5297 -82.8672
61.8846 -83.504
63.42 -83.0657
65.1274 -82.9043
67.1262 -83.5137
69.2603 -83.1537
71.6679 -83.3828
73.5168 -82.9612
75.6834 -83.2712
77.418 -83.3359
79.3155 -82.9819
81.5195 -83.6912
83.168 -83.1795
84.7389 -83.3343
86.8773 -83.6602
89.331 -83.2149
90.799 -83.3245
93.12 -83.2036
94.7665 -83.1781
96.7972 -83.0763
-98.8092 -80.8568
-96.92 -81.3931
-95.1929 -80.8366
-92.7612 -81.0854
-90.9708 -81.1059
-89.0738 -81.4106
-86.8612 -81.2063
-84.8462 -81.4516
-83.1136 -80.9625
-81.2632 -80.9059
-79.5555 -81.1613
-77.4815 -80.6413
-74.9099 -81.0865
-73.4359 -81.3194
-71.6107 -81.0746
-69.3516 -81.2178
-67.5735 -81.2694
-65.5122 -81.1427
-63.2489 -81.6868
-61.6487 -81.1816
-59.4072 -80.8233
-57.1971 -80.8078
-55.633 -81.6727
-53.4922 -81.0659
-51.5336 -81.6925
-49.4256 -81.2859
-47.1379 -81.2396
-45.529 -80.8337
-43.6662 -81.6043
-42.1103 -81.1353
-39.3833 -81.0686
-37.9086 -81.6797
-35.8781 -80.9681
-33.3557 -81.2548
-31.7746 -80.8786
-29.8148 -81.2587
-27.6053 -81.0043
-26.0687 -80.9533
-23.4372 -80.8712
-21.8622 -81.3193
-20.0991 -81.3526
-17.709 -81.0676
-16.0016 -81.2067
-14.0569 -81.1036
-11.718 -80.9123
-9.58351 -81.4263
-8.26767 -81.4044
-5.65563 -81.0375
-3.66863 -81.4617
-2.07231 -81.0453
0.0528966 -81.0335
2.33223 -81.459
3.7578 -81.1554
5.70604 -81.3804
8.31926 -80.9991
10.1914 -81.0957
11.8199 -81.086
13.9363 -81.5289
15.832 -81.025
17.7031 -80.9821
19.3681 -80.9924
22.1437 -81.5224
23.481 -81.3802
25.7498 -81.1548
27.5082 -81.1801
29.8797 -80.8828
31.5549 -81.6003
33.6027 -80.9923
35.6944 -81.3502
37.2453 -81.4291
39.4232 -81.08
41.8399 -81.102
43.6672 -80.989
45.5187 -80.624
47.6788 -81.5109
49.7707 -80.7792
51.2523 -81.0128
53.5397 -81.3694
55.2851 -80.4478
57.5047 -80.7818
59.0139 -81.1932
61.3725 -81.188
63.2669 -81.3066
65.3172 -81.1634
67.0784 -81.1656
69.4935 -81.3565
71.3707 -81.2719
72.8328 -81.6006
74.8527 -81.4046
77.3969 -81.4147
78.9923 -80.8768
81.1235 -81.089
83.2663 -81.3187
85.2836 -81.1809
87.4234 -81.2055
88.9801 -81.0632
91.4753 -80.8916
92.5657 -81.0449
95.0521 -81.4039
97.1296 -81.1065
-98.7174 -79.0534
-97.1006 -79.3074
-95.115 -79.2492
-92.7389 -78.9017
-91.1973 -79.0839
-89.5295 -79.164
-87.2131 -78.9285
-85.4741 -78.813
-82.4729 -79.214
-81.4673 -79.4186
-79.2731 -78.9712
-77.4988 -79.1672
-75.3307 -78.9225
-73.3734 -79.2155
-71.2478 -79.4104
-68.8881 -79.0968
-67.5938 -79.1196
-65.396 -79.2948
-63.1547 -79.1529
-61.3414 -78.7828
-59.3324 -79.3465
-57.5743 -79.0562
-55.4005 -79.4776
-53.5703 -78.8574
-51.5008 -79.4407
-49.3534 -79.4061
-47.064 -79.38
-45.817 -79.168
-43.5577 -79.1668
-41.3559 -79.2148
-39.4569 -79.5619
-38.1461 -79.231
-35.6938 -79.7253
-33.8032 -79.1545
-31.749 -79.024
-29.6815 -79.1632
-27.7462 -79.1474
-25.5362 -78.6906
-23.3841 -79.0605
-21.8705 -79.5771
-19.5717 -79.0186
-17.8361 -79.1074
-16.2037 -78.6552
-14.306 -79.072
-11.9858 -79.548
-10.1449 -79.3644
-8.37381 -79.1654
-6.18796 -78.9494
-4.53715 -79.2596
-1.5597 -79.1805
-0.056914 -79.0139
1.42765 -79.0072
4.12433 -79.0104
5.83057 -79.476
8.43645 -79.3559
9.81684 -78.9542
11.8747 -79.5599
13.8077 -78.7897
15.7994 -79.4502
17.5995 -79.0417
19.8483 -78.9038
21.7594 -79.0893
24.0303 -78.8858
26.048 -79.405
27.8795 -78.8607
29.9029 -79.2058
32.0104 -79.6558
33.9141 -79.4808
35.8552 -79.2677
37.232 -79.5935
39.3779 -79.4083
41.7933 -79.0454
43.9238 -79.2265
45.8031 -78.8114
47.83 -79.223
49.2023 -78.8957
52.0497 -79.5457
53.6921 -78.8526
54.9927 -79.0693
57.1963 -79.0488
59.457 -79.324
61.6467 -79.5621
63.7463 -79.2157
65.1034 -79.8246
67.255 -78.7993
69.3922 -79.3635
71.4447 -79.2265
73.2986 -79.7327
75.0352 -79.4736
77.5923 -79.1379
79.134 -78.9134
80.8859 -78.9825
83.284 -78.8318
84.8683 -79.4492
87.4978 -79.0927
89.3232 -79.0127
91.4614 -79.2165
93.2039 -79.8129
95.0461 -79.0892
97.3847 -79.1234
-98.9878 -77.2561
-96.8365 -77.5105
-94.9045 -77.4201
-93.392 -77.2155
-91.3975 -77.3881
-89.2051 -77.3024
-86.7259 -77.1481
-85.1455 -77.546
-83.1996 -77.2682
-81.1999 -76.965
-79.432 -76.9675
-76.9772 -77.5492
-74.8942 -77.7169
-73.6081 -77.1545
-71.5219 -77.2572
-69.0493 -77.4667
-67.3375 -77.4439
-65.5102 -77.2223
-63.6032 -77.6141
-61.2134 -77.3256
-58.959 -77.3871
-57.0946 -77.3986
-55.3063 -77.4086
-53.5021 -77.5395
-51.6672 -77.1654
-49.3294 -77.1098
-47.5455 -77.1481
-45.7461 -77.0941
-43.4864 -77.5046
-41.5651 -77.5144
-39.8669 -77.1
-37.9095 -77.431
-35.5834 -76.914
-33.5652 -76.7817
-31.4926 -76.6418
-29.6454 -78.0345
-27.4468 -77.394
-25.8203 -77.4
-23.6859 -76.6751
-21.6221 -77.3723
-20.1023 -77.3076
-17.9027 -77.3777
-15.9974 -77.1308
-14.1323 -76.8233
-12.0925 -77.1791
-9.92629 -77.8169
-7.49312 -76.9959
-6.10277 -77.5379
-3.80038 -77.4862
-1.75916 -76.8229
-0.0459703 -77.0459
1.92037 -77.3373
4.32988 -76.6804
5.79734 -77.1803
8.24844 -77.5616
10.0354 -76.9188
11.8956 -77.1477
14.1397 -77.4438
15.7599 -77.4073
17.8835 -77.0405
19.3458 -77.802
21.3218 -76.8886
23.7177 -76.8138
26.07 -77.5883
27.6174 -77.3067
29.8976 -76.9386
32.1271 -77.3501
34.1439 -77.4293
35.8503 -76.9235
37.9858 -76.9274
39.4711 -77.4309
41.7382 -77.2187
44.0262 -77.2276
45.4771 -77.7101
47.4816 -77.0112
49.9554 -77.459
51.475 -77.317
52.9939 -76.7678
55.4784 -76.8423
57.0147 -77.1489
59.066 -77.2651
61.262 -77.2216
63.8455 -76.752
65.0912 -77.1185
67.2016 -77.6733
69.5809 -76.7042
71.1541 -77.0997
73.5479 -76.9937
75.0406 -77.1113
77.5579 -76.8302
79.5758 -77.4761
80.7768 -77.3093
83.1372 -77.4762
85.3016 -77.3995
87.0218 -76.5887
88.7626 -77.1579
90.8823 -77.4266
92.7267 -77.4737
95.048 -77.8045
96.9834 -77.0828
98.7542 -75.1565
-97.376 -75.9976
-95.0779 -75.5497
-92.9262 -75.2591
-91.3792 -75.4302
-89.303 -74.9439
-86.6016 -75.4702
-85.1993 -75.5194
-83.4622 -74.5261
-80.9952 -74.6933
-78.9396 -75.2383
-76.8993 -75.4455
-75.1902 -75.1468
-73.2 -75.0741
-71.0353 -75.2771
-69.1229 -75.4313
-67.173 -75.0363
-65.9533 -75.2519
-63.4838 -75.197
-61.4387 -75.2692
-59.7108 -75.3422
-57.3061 -75.3104
-55.6338 -75.9466
-53.5099 -75.4665
-51.2945 -75.4658
-49.2443 -75.26
-47.4738 -75.1623
-45.6463 -75.4937
-43.1637 -75.4421
-41.536 -75.5388
-38.9594 -75.2438
-37.4968 -75.2966
-35.9134 -74.9121
-33.8653 -75.6226
-31.4742 -74.7859
-29.8221 -75.2545
-27.7527 -75.1559
-26.0919 -75.4368
-23.7307 -75.2267
-21.8124 -75.0955
-19.5214 -75.1809
-18.1708 -75.2315
-15.7387 -74.954
-13.7772 -75.1973
-11.7701 -75.3211
-9.77512 -74.9902
-8.27798 -75.648
-5.97997 -75.654
-3.83057 -75.3967
-2.03686 -75.7265
0.0559092 -74.7959
1.77696 -75.5097
4.2032 -75.4096
5.90441 -75.0871
8.0521 -74.8852
9.86868 -75.0116
12.0846 -75.6244
13.9957 -74.763
15.8916 -75.2067
18.2598 -75.4193
19.9521 -74.9203
21.5374 -74.7686
23.284 -74.7903
25.9942 -75.0088
27.5162 -74.8835
29.6693 -75.5611
31.8151 -75.1077
33.8877 -75.6198
35.4148 -75.5821
37.558 -75.4305
39.6153 -75.5256
41.461 -75.5849
43.6557 -75.3661
45.7103 -74.9665
47.0478 -75.012
49.8124 -74.8815
51.0984 -75.2264
53.5865 -75.2029
55.395 -75.2091
57.5079 -75.315
59.4297 -75.1052
61.5288 -75.1833
63.1738 -75.4862
65.4136 -75.2584
67.4195 -75.056
69.2334 -74.9633
71.0534 -75.2721
72.7923 -75.5434
75.6116 -74.9418
77.0997 -75.6624
79.0573 -75.611
81.1623 -75.4007
82.931 -75.3278
85.0747 -75.0265
87.01 -74.7783
89.2 -75.3952
90.9669 -75.1493
93.5302 -74.9643
95.066 -75.3926
96.475 -75.5707
98.8354 -73.1008
-97.2695 -73.3032
-95.2047 -73.1383
-92.963 -73.2474
-90.9383 -72.811
-88.6816 -73.444
-86.9385 -73.5849
-84.8198 -73.1079
-83.0725 -73.1565
-80.9097 -73.425
-79.8291 -73.413
-77.6288 -73.0701
-74.9929 -73.3624
-73.5394 -73.0849
-71.7048 -73.2302
-69.7303 -73.5051
-67.7325 -73.4172
-65.0818 -73.8748
-63.4791 -73.0774
-61.1504 -73.263
-59.1795 -73.4115
-57.3963 -73.4967
-55.6741 -73.9462
-53.5148 -72.894
-51.1085 -73.0966
-49.6312 -72.7215
-47.4664 -73.2009
-45.6312 -73.4358
-43.7501 -73.1613
-41.5783 -73.0128
-39.5793 -73.3084
-37.4325 -73.5005
-35.7644 -73.0138
-33.8874 -73.5765
-31.4015 -73.1309
-29.722 -73.3603
-27.4851 -73.3808
-25.6312 -73.6535
-23.7486 -72.3652
-21.9493 -73.1186
-20.1296 -72.8805
-17.724 -73.0359
-16.1619 -73.4305
-14.0618 -72.9041
-11.617 -73.342
-10.0398 -73.2946
-7.93345 -73.181
-6.01197 -73.3232
-3.74036 -73.09
-1.99191 -73.216
-0.246967 -73.5226
1.52062 -72.8589
3.72894 -73.0618
5.99407 -73.2053
7.9533 -72.8015
9.84851 -72.7131
11.9109 -73.353
14.1108 -73.4399
15.7449 -73.5559
17.8832 -73.1975
20.1575 -73.2276
22.0539 -73.4427
24.0015 -73.4203
25.5825 -73.5177
27.7973 -73.2932
29.3368 -73.5214
31.7209 -73.1428
33.5643 -73.0318
35.35 -73.327
38.2427 -73.4168
39.4329 -73.2391
41.5674 -73.7836
43.8087 -73.6154
45.4108 -73.4469
47.3708 -73.7285
49.6123 -73.3853
51.8437 -73.131
53.5138 -72.8661
55.495 -73.218
57.2583 -73.2025
59.574 -73.0252
60.8907 -73.5888
63.3379 -73.7358
65.0892 -72.8055
66.8963 -72.7798
69.3016 -73.2659
71.019 -73.6521
73.3331 -72.7916
75.2618 -73.4565
77.1038 -73.418
79.3015 -73.2151
81.0018 -72.8068
82.823 -73.4807
85.1285 -73.1414
86.9765 -73.1231
88.7252 -73.1769
90.8477 -73.0748
93.2065 -73.1042
94.85 -73.2313
97.1292 -73.1981
98.7902 -71.1922
-97.2142 -71.2648
-95.1603 -71.2546
-92.9107 -71.2367
-91.022 -71.4651
-88.8748 -71.4221
-87.1506 -71.4086
-85.1762 -70.7509
-82.7715 -71.1676
-80.8665 -71.0461
-79.5166 -71.1209
-77.6572 -71.5523
-75.7808 -71.5833
-73.3755 -71.2561
-71.2859 -71.1013
-69.4983 -71.2058
-67.1896 -70.7987
-65.1776 -71.2448
-63.3558 -71.4784
-61.692 -70.9819
-59.615 -71.3839
-57.3775 -71.2335
-55.5786 -71.7249
-53.4916 -71.2511
-51.5268 -71.4246
-49.5907 -71.3797
-47.2254 -71.3513
-45.7061 -71.3866
-43.9215 -72.0099
-41.6003 -71.4687
-39.4512 -71.2779
-37.7451 -71.159
-35.8641 -71.3092
-33.5564 -71.1603
-31.3268 -71.022
-29.6444 -71.5797
-27.4426 -71.1489
-25.3451 -71.3837
-23.6703 -70.9617
-21.7891 -71.5007
-19.7366 -71.6559
-18.5258 -71.0953
-16.1281 -70.8949
-13.9285 -71.5345
-11.5623 -71.1646
-10.1594 -71.3178
-7.80421 -71.6667
-5.64691 -71.2897
-4.21106 -71.2953
-1.60772 -71.784
-0.0876909 -70.9524
1.75039 -71.0525
3.88444 -71.2911
5.95272 -71.1777
7.60309 -71.2207
10.092 -71.6519
12.1207 -71.3492
14.5413 -71.2304
16.1942 -71.6665
17.8271 -71.2427
20.0393 -71.1594
21.7927 -71.6059
23.3705 -70.8441
25.5067 -71.4116
27.9356 -71.262
29.8685 -70.8774
31.1366 -71.3224
33.4375 -71.3688
35.8211 -71.0698
37.9298 -70.7408
39.8108 -71.5876
41.2084 -71.3176
43.7532 -71.8843
45.49 -71.6672
47.5179 -70.9912
49.4354 -71.3106
51.5046 -71.2929
53.4245 -70.9541
55.6056 -71.3268
57.8178 -71.1393
59.4228 -71.4813
61.2889 -71.3182
63.8523 -71.6858
65.102 -71.5568
67.3937 -71.7171
68.8602 -71.7127
71.4985 -71.095
73.3334 -71.0011
75.4117 -71.3882
77.9533 -71.3036
79.6125 -71.4918
81.6271 -71.646
83.1157 -71.5821
85.0669 -70.5918
87.2152 -71.4782
89.5033 -71.4525
90.819 -71.6218
93.0028 -71.1094
94.8868 -71.9332
97.7948 -71.5288
98.9716 -69.3697
-97.0793 -68.909
-95.0371 -69.1794
-93.1894 -69.3556
-90.8817 -69.3919
-89.2473 -69.293
-86.7636 -69.1557
-84.9744 -68.8671
-82.621 -68.6414
-81.4976 -69.483
-79.4747 -69.0604
-77.2568 -69.1352
-75.3278 -69.3336
-73.4214 -69.3162
-71.0603 -69.537
-69.3131 -69.1401
-67.9022 -69.2557
-65.4384 -68.9484
-63.418 -69.4058
-61.3213 -69.4094
-59.964 -69.3015
-57.1651 -69.2453
-55.9628 -68.9367
-53.2492 -69.321
-50.9225 -69.4061
-49.7787 -69.8194
-47.5203 -69.4556
-45.6493 -69.2694
-43.9044 -69.0713
-41.4723 -69.2968
-39.4019 -69.5604
-37.1173 -69.273
-35.5273 -69.2947
-33.219 -69.3458
-31.6681 -69.3329
-29.5013 -69.2242
-27.5975 -69.6425
-25.7014 -69.3807
-23.8032 -69.328
-21.5696 -68.8947
-20.0276 -69.6317
-18.1393 -69.1981
-15.8901 -69.5296
-14.0897 -68.7011
-11.991 -69.2357
-9.60648 -69.487
-8.56324 -69.5048
-5.79469 -69.17
-3.88112 -69.6446
-2.39734 -69.4188
-0.383331 -69.3521
2.04888 -69.0173
4.31674 -69.6394
5.95166 -69.3532
8.39936 -69.2524
10.0603 -69.3835
12.4095 -68.9957
14.3449 -69.3798
15.4422 -68.9485
17.7677 -69.4434
19.8577 -69.5374
21.6648 -69.0391
23.9455 -69.8792
25.6759 -69.3376
27.3288 -69.2282
29.5772 -69.4691
31.9088 -68.8798
33.9591 -69.2802
35.6432 -69.1872
38.052 -68.8455
39.9299 -69.112
41.4315 -69.5822
43.6187 -69.4061
45.3879 -68.8222
47.2583 -69.5859
49.4583 -69.4546
51.2117 -69.7829
53.6419 -69.536
56.0223 -69.363
57.0426 -69.7141
59.3558 -69.3074
61.2836 -68.9541
63.1448 -69.3807
64.9799 -69.3807
67.1685 -69.7937
69.8333 -68.7267
71.5698 -69.2997
73.2096 -69.5613
75.2386 -69.2918
76.9744 -69.4989
79.0706 -69.2363
81.3159 -69.1881
83.6461 -69.6055
84.833 -68.8352
86.8054 -69.1437
89.0842 -69.5179
91.0174 -69.6758
93.2519 -69.3974
94.7624 -69.3597
96.7838 -69.811
-98.8349 -67.0051
-97.2449 -67.2259
-94.8378 -67.8258
-93.3201 -67.587
-90.8446 -67.1211
-88.9439 -66.7824
-86.8625 -67.4594
-85.5423 -67.6202
-83.1063 -66.873
-80.881 -67.4093
-79.136 -67.8715
-77.1542 -67.4737
-75.1474 -67.5038
-73.1935 -67.3382
-70.9549 -67.051
-69.188 -66.8815
-67.8268 -67.1029
-65.3702 -67.6353
-63.4867 -67.191
-61.4119 -67.6589
-59.2511 -67.0227
-57.3275 -67.6922
-55.6985 -67.4
-53.4891 -67.1375
-51.8729 -67.2231
-49.8582 -67.5743
-47.788 -67.0598
-46.0682 -67.3785
-43.457 -67.4558
-41.5802 -67.3989
-39.5877 -67.3792
-38.312 -66.9249
-35.5919 -67.3133
-33.8426 -67.1364
-31.9667 -67.1531
-30.0759 -67.0327
-27.7723 -67.6238
-26.1295 -67.4496
-23.8617 -67.4381
-21.808 -66.8502
-20.0205 -67.6973
-18.0492 -67.0275
-16.0864 -67.2347
-13.8174 -67.4079
-11.5594 -67.0687
-9.69764 -67.1906
-7.92277 -67.4393
-6.12956 -67.1726
-3.98676 -67.3882
-1.77552 -67.2485
-0.113383 -67.5107
1.92248 -66.9813
3.70354 -67.1779
6.32582 -67.5918
7.6 -67.3888
9.85102 -67.3017
11.4217 -67.3275
13.9733 -67.7627
15.9056 -68.0558
17.8771 -67.5318
20.0727 -67.5209
21.7492 -67.5264
23.3281 -67.2832
25.7935 -67.5619
27.766 -67.3434
29.2489 -67.7089
32.0002 -67.4666
33.5261 -67.502
35.4161 -67.3722
38.1579 -67.1028
39.5133 -67.007
41.1337 -67.3731
43.43 -67.3001
45.8737 -67.5306
47.6618 -67.2171
49.6687 -67.5828
51.4288 -67.6616
53.5289 -67.1538
55.3671 -67.7117
57.4394 -67.1075
59.0657 -67.4486
61.212 -67.149
63.0005 -67.1268
65.1602 -67.3124
67.6598 -67.6532
69.4711 -66.8078
71.3359 -67.606
73.3283 -67.3081
74.8649 -67.7808
77.1531 -67.2887
79.2996 -67.9947
80.9688 -67.9274
82.6486 -67.5116
84.9904 -67.1118
87.2058 -67.1635
88.5999 -67.4752
90.9148 -67.5087
93.4577 -67.41
95.1474 -67.4914
97.3427 -67.2375
98.5212 -65.4692
-96.7568 -65.3482
-95.2731 -65.5265
-93.3636 -64.995
-91.2286 -64.6601
-89.3996 -65.5559
-87.442 -65.1939
-84.8493 -65.225
-82.7542 -65.6739
-80.9933 -65.2202
-79.0189 -65.2622
-77.3113 -65.5095
-75.1269 -65.4773
-73.3321 -65.2048
-71.1119 -65.1786
-69.3825 -65.0482
-68.0266 -65.7553
-65.0772 -65.8259
-63.3637 -64.7885
-61.1628 -65.3607
-59.0876 -65.4326
-57.6901 -65.6927
-55.4041 -65.3183
-53.6421 -65.1665
-51.5229 -65.4067
-49.6801 -65.2509