ITEM: TIMESTEP
12500
ITEM: NUMBER OF ATOMS
10000
ITEM: BOX BOUNDS pp pp pp
-5.7205700000000000e+01 5.7205700000000000e+01
-5.7205700000000000e+01 5.7205700000000000e+01
-1.1441100000000000e+01 1.1441100000000000e+01
ITEM: ATOMS x y
-54.0311 55.0301
-53.3597 53.0224
-53.1572 -54.3659
-52.7382 56.7021
-51.5734 -56.5198
-49.851 -54.8106
-47.7366 53.2232
-47.1068 54.8645
-42.5404 56.0806
-43.2406 -53.8203
-40.0935 54.5709
-43.6083 -54.8409
-43.623 -57.0209
-38.5825 -55.367
-37.3651 -55.587
-33.6833 -53.1941
-32.4672 -53.6142
-31.8843 -55.6474
-31.5196 -56.5962
-30.4985 55.8398
-28.5864 -55.0331
-29.304 -56.2966
-30.0218 -57.1687
-28.9236 55.939
-27.6523 -56.8075
-26.4999 53.3593
-26.1325 55.3845
-23.07 53.7915
-21.7848 56.9686
-19.54 -52.2374
-19.9295 -54.9738
-16.8258 56.437
-18.5139 -56.3962
-13.5004 56.5225
-14.4403 -53.9588
-11.5163 -57.0601
-10.8894 56.3252
-7.96095 -54.9267
-7.83509 -56.7111
-6.06438 -53.9132
-9.88451 55.5683
-6.96003 -56.0914
-4.87189 -54.289
-4.25214 -53.4368
-0.362772 -52.682
-2.71748 -55.0781
0.0900789 56.5523
5.62471 57.1416
2.41279 55.469
4.07526 -57.1242
4.19136 -56.1165
6.04549 55.9799
6.49036 -54.2661
8.09526 -55.6721
5.63228 54.9069
13.3582 57.1124
13.8213 54.4341
14.351 -56.8775
13.5687 -56.0409
16.1905 -55.3756
18.8229 -55.9866
17.9647 -54.4422
18.0039 56.0149
18.6153 57.1484
21.9006 56.2497
21.9544 55.1299
24.1607 51.8386
25.7662 53.3279
25.2272 55.7637
26.3179 54.9136
27.2585 55.2449
27.9831 54.563
31.0883 49.2988
31.0038 -57.0669
31.7456 55.2815
33.7222 -56.8839
33.9908 -55.6426
35.2147 -56.3937
34.7599 56.8631
36.455 56.4318
34.92 55.8265
40.9026 54.2561
40.6099 -56.9839
42.8063 55.162
44.411 55.9004
45.6898 -56.8402
45.2629 -54.8201
49.0196 56.3552
47.0022 56.4642
48.2529 55.6491
49.5945 55.3937
50.6631 54.3149
51.5663 53.4724
53.6247 55.8276
55.3583 55.4412
54.1399 54.809
57.1473 54.2518
56.6104 55.3748
-54.8219 52.6506
-57.1128 56.4116
-56.2902 53.6905
-53.7019 -56.7304
-52.6355 -56.653
-51.7515 -54.5204
-51.6831 56.8628
-52.4779 -53.4867
-48.0232 -55.704
-47.199 56.5276
-45.0216 -54.3442
-46.0617 -56.9824
-43.5641 -52.8061
-40.0036 56.7921
-38.1017 -54.4977
-36.0079 -52.6661
-35.0904 -54.1154
-31.2907 -53.5607
-31.4013 -52.426
-30.3771 -56.2187
-29.7911 -55.2172
-30.4312 -51.9232
-28.2466 -53.9071
-28.628 57.2099
-28.296 -56.0091
-27.5278 -54.6619
-27.8184 54.9423
-28.5858 54.2837
-24.391 53.9581
-23.7663 56.0047
-22.5782 -56.6684
-19.6387 -56.5099
-16.5713 -55.0411
-21.4983 -56.4582
-17.8177 -55.6744
-14.7012 -55.9283
-12.988 -54.9194
-13.2297 55.4368
-9.06983 -54.7351
-8.85324 -57.1251
-6.49536 -54.8808
-8.78379 -55.8429
-4.60076 -56.1288
-5.32656 57.1926
-5.76827 -52.3241
-5.2573 -53.3016
-2.46781 -53.6462
0.00711951 -56.7304
-0.562585 -54.8705
3.23101 -55.7443
0.504588 -54.7706
2.50375 -55.0423
6.12421 -55.2243
8.44499 -56.6712
8.19203 56.615
9.38752 -56.3385
10.4758 -56.322
11.3436 56.2326
13.4501 55.5151
16.7881 -54.5445
15.4337 -52.4713
16.5069 -53.1724
17.5903 -56.293
18.8529 -54.9545
16.1963 56.8122
22.7942 53.8285
22.9963 51.8143
22.9396 56.0131
25.0814 54.4735
27.3476 -56.2127
29.0969 54.4961
32.4692 56.221
30.0749 54.8071
29.8527 56.2351
30.8224 -54.0158
31.8817 -53.1537
32.8971 -56.2238
32.7698 -55.2289
35.001 -55.2976
33.8142 56.4946
34.8417 -52.8408
35.9399 -57.0771
37.1479 -52.6592
37.0941 -56.6008
44.176 -56.7687
43.0682 56.7801
41.4942 55.1537
42.8487 -54.4397
47.4108 -56.9136
48.0075 -54.711
47.9331 -53.0246
45.9092 -55.8391
48.557 -56.3455
50.8185 -56.7686
50.6872 55.5891
51.1943 56.6201
52.7131 -56.3249
55.3378 56.4666
55.1009 51.5791
-55.9732 56.0051
-55.8415 -54.8988
-55.1283 57.0393
-54.7113 -56.4423
-51.635 -52.9397
-52.7777 -49.5159
-50.7079 -54.229
-51.1345 -55.3488
-51.2857 -51.8582
-52.5967 -55.2339
-47.6705 -56.8282
-46.7505 -56.2387
-47.1194 -55.2806
-43.7419 -55.9311
-42.2753 -53.4559
-40.8016 -55.0988
-40.9372 -52.0074
-34.834 -53.1264
-33.7665 -52.0292
-33.1824 -51.0916
-29.3702 -54.1254
-29.2723 -51.5269
-31.076 -51.0088
-28.321 -52.4719
-26.8951 -55.8156
-27.759 56.4339
-26.846 -53.899
-25.7094 56.4226
-26.7781 56.2528
-24.8144 55.926
-24.5846 57.1703
-20.6206 -52.7864
-17.6627 -52.1214
-20.0149 -53.7519
-17.8077 -54.4836
-14.4587 -52.95
-18.7394 -54.0165
-13.409 -55.9428
-12.6961 -56.8346
-9.94005 -55.649
-6.02655 -56.4624
-10.2791 -53.1303
-11.1551 -52.5634
-7.94481 -51.677
-3.78407 -55.1063
-7.04318 -52.9696
-6.9685 -50.4061
-3.91373 -50.6109
3.25702 56.5806
-0.271753 -53.7458
0.75728 -53.0765
1.52022 -54.5149
3.71375 -54.6884
6.06707 -52.5389
9.23073 57.0521
7.29507 55.7129
9.12439 -55.1814
12.3304 56.7682
15.7252 -54.1027
14.3374 -54.6377
12.7565 -55.0793
14.85 -53.3073
15.788 -51.3869
14.4959 -55.6285
20.6572 -56.1012
24.1147 -56.2966
25.7447 56.6292
24.1896 55.7798
24.0198 54.0578
26.8659 -55.2952
28.6535 56.3572
26.7356 56.4845
29.0079 -57.1054
30.7819 55.524
29.5199 -55.6569
31.5177 -55.589
30.3988 -56.2336
30.0418 -51.9879
32.8093 -54.0253
31.8497 -54.6013
33.8817 -54.6225
33.7621 -53.4521
36.36 -54.6871
36.1647 -53.4861
37.0686 -53.9719
41.3503 56.4747
41.7233 -56.9446
42.5541 -55.4206
44.0987 -55.0989
44.2068 -53.8815
47.1858 -54.0326
46.2936 -54.8556
48.8602 -52.5792
47.4972 -55.686
49.3148 -57.0403
51.7586 -55.9772
53.9478 56.8713
53.6363 -54.7047
54.6207 -56.5019
-54.7186 56.0033
-56.2045 57.127
-57.1428 -56.8646
-55.8346 -56.3231
-54.5815 -55.1302
-53.7167 -55.6806
-53.131 -52.7268
-52.1597 -51.1818
-50.5947 -52.6228
-51.8813 -50.11
-49.6922 -53.3582
-48.7584 -53.7801
-49.8754 -56.0088
-45.267 -56.1683
-40.327 55.6895
-42.45 -55.0881
-39.8848 -52.4607
-40.2628 -51.1331
-35.2951 -51.9547
-39.6471 -55.0612
-36.6426 -50.9235
-32.8581 -52.4874
-32.2711 -50.546
-30.4117 -52.9326
-31.9324 -51.5158
-26.836 -51.0105
-29.4371 -52.7512
-25.6582 -56.9675
-25.8417 -55.6669
-26.6562 -56.8087
-23.2394 57.0005
-18.9485 -51.2467
-18.5098 -52.9685
-19.3046 -50.3054
-15.2385 -55.0045
-15.8364 -55.8744
-16.9383 -53.9608
-13.9935 -54.8776
-10.1761 -54.2964
-12.003 -55.2506
-7.31867 -53.9617
-11.1107 -51.2552
-9.3813 -53.5723
-8.08354 -50.5174
-8.20934 -52.9142
-8.35943 -53.9452
-8.8705 -51.3022
-6.84903 -51.8904
-3.64216 -51.5747
0.877844 -50.7582
0.564319 -51.813
1.7342 -50.1902
1.76298 -53.261
1.453 -52.3151
2.80504 -49.9394
4.9827 -55.279
7.42455 -56.6118
7.07199 -55.5234
7.59256 -54.5369
12.6054 -56.3702
11.6704 -56.7543
11.3624 -55.797
11.2833 -53.7462
14.5557 -51.5558
17.4497 -53.4751
19.5148 -54.1236
21.5245 -56.5877
22.9232 -56.3011
23.0904 54.9831
23.9247 57.0814
25.2769 -56.2237
26.3178 -53.3041
26.8591 -54.2916
28.8742 -53.1533
28.4649 -56.1957
29.2145 -54.3767
28.0198 -51.5379
29.8706 -53.6044
32.9292 -52.8873
35.8359 -52.4216
33.9713 -52.2426
34.7362 -53.9765
36.0384 -55.6488
38.1382 -52.5343
37.1392 -51.1368
38.9778 -55.7179
40.557 -55.4837
41.5045 -55.9324
43.1134 -56.5747
42.0498 -53.7893
41.6502 -54.7074
46.2828 -51.9207
51.1659 -53.4123
46.2829 -53.505
47.2033 -52.3441
49.6163 -48.2717
48.9781 -55.4117
50.0983 56.7543
52.5564 -54.9129
55.6627 -54.937
55.9858 54.3257
56.2887 57.1223
-56.2716 -53.0951
-56.6274 -55.6371
-53.2127 -51.6814
-54.0953 -53.0291
-50.8867 -49.8697
-51.1898 -50.8368
-48.5316 -50.934
-48.6755 -54.8767
-47.695 -54.288
-46.2254 -54.4468
-44.6032 -55.2839
-46.0812 -55.4737
-44.4509 -53.5188
-45.4527 56.613
-42.1398 -52.3237
-39.861 -48.815
-41.3588 -54.0155
-41.5043 -55.8927
-36.977 -52.038
-32.958 -49.7903
-32.9062 -47.5501
-30.9507 -49.8159
-28.6476 -49.9197
-30.6127 -48.8706
-30.6851 -47.8493
-29.7831 -50.6525
-27.4246 -53.0439
-24.5654 -53.385
-25.3725 -54.2507
-21.0597 -55.5226
-23.7554 -55.2169
-17.1186 -52.9693
-15.3348 -51.5494
-15.8769 -54.0517
-14.6301 -50.7984
-13.2751 -52.5047
-12.3766 -54.1069
-11.1938 -53.635
-12.3852 -52.9485
-12.0635 -51.84
-11.0028 -50.2246
-9.99014 -49.4774
-9.60749 -52.2822
-8.73304 -47.496
-7.87153 -49.3364
-7.10158 -48.5291
-4.3659 -52.315
-1.73384 -55.3553
-2.33112 -51.5115
-1.64878 -54.2214
-0.376263 -50.5078
1.76818 -51.281
3.73868 -53.3833
2.88026 -53.9946
5.79441 -53.4988
2.91426 -52.775
9.7513 -53.1338
10.5736 -55.0448
11.5734 -54.7451
11.9755 -52.8821
13.4012 -54.1933
13.0768 -51.9294
14.1782 -52.537
17.2782 -51.0227
19.9549 -55.3161
20.6012 -54.2802
25.7597 -55.1906
24.2888 -55.2577
23.2372 -53.1651
23.1547 -51.9092
21.6208 -53.7117
27.8431 -53.6403
30.3858 -54.9418
28.1436 -55.1017
30.6828 -48.9508
29.835 -50.8136
30.8272 -52.703
32.1872 -51.6215
32.3021 -50.4008
39.1539 -52.8674
40.2558 -52.6051
38.7705 -54.16
41.4328 -52.3674
38.2011 -54.9998
39.78 -56.3351
39.577 -54.9007
40.5892 -54.4333
45.2004 -53.7017
48.2555 -50.3481
46.3353 -50.2896
48.0376 -51.5071
49.5051 -54.5148
48.7693 -48.8904
48.8408 -53.7667
50.4548 -54.1128
49.9373 -56.2584
50.7621 -55.1946
53.9809 -55.684
54.6536 -54.8805
55.9068 -56.1264
-53.0854 -50.5646
56.616 -55.3781
-54.2508 -54.1055
-55.0286 -52.5561
-54.1108 -49.9788
-49.2203 -50.202
-48.6624 -52.4222
-50.0579 -51.7249
-47.8695 -53.0378
-44.4538 -51.4103
-46.4462 -50.0795
-44.5961 -50.3101
-44.6137 -52.5353
-43.4732 -51.7701
-43.8865 -49.0321
-42.5323 -50.9165
-39.1491 -51.5039
-40.0997 -53.9846
-34.5824 -51.2207
-38.9588 -53.0991
-33.0607 -48.6692
-27.9697 -51.3473
-27.6043 -49.104
-26.848 -48.1544
-27.6249 -50.3966
-26.3377 -53.0036
-26.022 -51.998
-23.3683 -51.0121
-24.7895 -55.4221
-23.7219 -56.2703
-22.8474 -55.6613
-20.9277 -54.5327
-20.2916 -51.5374
-13.2558 -51.4662
-20.6793 -49.0526
-14.3255 -48.8637
-15.2159 -49.7687
-11.0013 -56.0438
-14.0112 -49.9376
-9.78057 -50.8908
-12.2166 -47.3165
-7.28218 -45.4502
-10.2694 -48.3036
-8.14827 -48.3576
-8.98531 -49.7691
-7.48491 -47.4691
-6.01282 -51.2934
-4.66738 -51.3413
-2.84472 -52.4384
-2.70567 -50.5626
-1.056 -51.6035
-0.99415 -49.5259
4.00812 -50.8853
4.94179 -54.2797
9.25607 -54.0165
7.3902 -53.5573
8.40484 -53.4039
7.28139 -52.5651
10.2773 -54.0421
13.0984 -53.1094
15.2443 -50.1157
14.2377 -50.1968
18.2275 -52.8387
17.2754 -49.5562
22.1336 -54.6623
21.4578 -55.4694
22.9535 -55.2833
21.6592 -52.0328
25.6035 -49.5935
25.3306 -52.8074
24.2236 -53.4914
25.2011 -54.2273
26.9107 -52.495
27.9642 -52.6179
26.0707 -51.8298
28.4272 -49.6624
31.0048 -51.6593
33.5298 -51.2257
37.6431 -50.2291
39.4697 -51.7978
40.5979 -51.6
39.7997 -50.3935
42.5865 -52.6859
39.9933 -53.6089
44.3071 -52.8517
41.0753 -53.4627
43.0697 -51.0917
43.2953 -53.4958
45.5879 -51.0888
47.0245 -51.2366
47.793 -48.6098
47.0741 -49.5523
45.236 -44.7204
49.2017 -51.3461
49.8644 -52.9815
50.2888 -51.4793
52.5418 -53.9182
52.6044 -52.7934
55.7717 -53.7397
-56.7463 -54.0087
-54.8748 -51.3122
-55.2749 -53.7395
-56.1635 -52.098
-56.3316 -49.6568
-49.6547 -49.2149
-46.9631 -51.7281
-45.5857 -52.2008
-46.5538 -52.7824
-47.3052 -49.4578
-45.5364 -53.3751
-46.0445 -49.1353
-45.9151 -47.9691
-43.5469 -50.4722
-40.2816 -49.9714
-39.4608 -50.5316
-37.6992 -51.2602
-41.5217 -51.1798
-38.0905 -52.4436
-32.8066 -46.247
-31.789 -47.8451
-31.9888 -49.4096
-29.9004 -49.6454
-28.2535 -48.1129
-26.5621 -49.5355
-27.1886 -52.0695
-24.2784 -52.0869
-23.6154 -53.7206
-25.1639 -52.5299
-24.3941 -54.3976
-22.334 -50.9151
-22.5723 -53.3284
-20.391 -50.3074
-17.2958 -51.1309
-16.5125 -52.1231
-14.4011 -51.8934
-15.4565 -52.5918
-17.4641 -48.3932
-13.0603 -50.4364
-11.1673 -49.226
-13.2556 -53.5098
-3.56167 -46.1275
-9.89637 -47.3036
-9.10657 -48.6686
-6.86889 -46.3883
-6.06972 -48.6002
-5.16486 -49.0763
-2.38768 -49.0704
-4.32266 -49.7053
-1.70286 -50.4597
-0.39614 -48.6865
2.889 -51.4922
3.7922 -52.2256
3.78486 -49.5644
4.9053 -52.4702
8.38306 -48.0722
7.99575 -51.4033
6.98598 -51.4688
12.5173 -51.0004
10.4928 -51.8749
12.4212 -53.8774
11.5493 -51.6823
17.7437 -48.1422
16.6796 -48.5266
16.5476 -50.2727
20.5291 -53.1771
19.3159 -51.9322
19.4176 -52.9386
21.1868 -51.145
24.3052 -52.3352
23.3126 -54.3181
24.9858 -51.5498
27.6806 -50.3264
28.8066 -50.9062
27.486 -48.1371
32.681 -47.4867
29.0282 -52.1514
31.3471 -50.7159
34.6311 -51.4622
36.0405 -50.779
38.717 -49.6758
37.0637 -48.2439
37.9585 -47.1419
38.7256 -51.0712
36.8314 -49.3673
37.8569 -48.9466
41.8697 -49.9037
45.006 -51.9792
43.1681 -50.0996
46.6415 -47.3413
45.8746 -49.2271
44.9618 -48.8274
46.7651 -48.5785
50.4672 -49.4512
45.3762 -46.6193
51.2218 -50.9467
52.5525 -50.8201
54.3081 -53.9525
53.7 -52.7847
50.9861 -52.4091
55.1016 -52.8265
57.1094 -51.4818
-55.2242 -50.1809
-53.1034 -48.4511
-53.9444 -48.978
-51.8793 -48.8544
-48.1906 -46.7343
-48.2878 -49.8177
-47.1075 -48.2573
-45.8597 -51.1414
-44.7495 -47.0583
-44.3593 -48.025
-44.167 -46.1598
-40.7897 -47.7924
-41.0198 -48.8892
-35.2026 -48.3219
-38.6115 -49.9688
-37.493 -50.219
-36.2793 -49.1173
-35.6186 -50.7724
-29.2794 -47.2167
-29.3043 -48.6821
-27.4443 -47.2424
-29.8523 -45.1621
-25.2335 -49.5258
-23.6426 -49.9243
-25.8417 -50.745
-25.0505 -51.4086
-22.8076 -54.4121
-24.6591 -45.822
-23.3865 -52.539
-21.6722 -52.6178
-21.8752 -54.9552
-21.5841 -53.6053
-18.2763 -50.4922
-16.6001 -48.9444
-19.7446 -48.344
-18.5509 -49.5277
-12.2156 -49.4385
-11.8782 -48.4314
-11.9541 -50.5988
-6.46811 -47.6371
-10.0565 -46.1872
-8.01391 -46.5269
-5.2419 -47.7929
-6.59525 -49.4557
-5.37833 -50.0854
-0.66783 -47.3379
-1.52576 -48.0708
0.923374 -48.6815
1.60888 -47.8875
0.764156 -49.7254
3.06821 -48.777
5.02981 -50.5865
5.61537 -49.7505
5.98464 -51.4927
6.34324 -47.7177
6.58115 -49.305
10.8875 -50.7863
7.68918 -50.358
10.7406 -52.8771
16.4498 -52.1825
18.2251 -49.1844
18.2687 -51.3865
17.4636 -52.1763
20.299 -51.7382
19.7641 -50.759
24.3682 -50.7036
22.4114 -49.3904
25.4307 -50.6213
24.178 -48.2021
22.9749 -48.281
27.0553 -49.3591
29.8799 -48.3094
33.0703 -49.44
29.5072 -49.8162
31.5739 -49.5233
34.7736 -50.4725
35.8556 -49.5955
33.4197 -48.42
35.4204 -47.1805
39.0435 -47.5717
39.4219 -45.5399
35.6625 -48.446
39.1564 -48.7186
42.4553 -46.8384
40.8196 -50.5235
41.7023 -51.2093
40.855 -49.2801
44.2074 -49.6349
44.016 -50.6827
47.3633 -45.5668
50.9848 -45.017
49.6124 -45.0984
48.531 -46.0928
49.8452 -47.1887
51.4702 -54.3729
54.175 -49.3004
-57.1964 -52.4822
-56.5056 -50.7538
56.0992 -52.6755
56.2283 -50.4763
-55.1988 -49.0976
-50.3747 -43.7382
-50.6421 -46.5059
-49.7039 -47.9037
-49.8187 -44.5937
-47.6261 -45.9138
-47.482 -50.5018
-48.2305 -47.7786
-46.5211 -46.0746
-41.6343 -45.3734
-44.8926 -48.983
-42.7333 -49.8319
-41.3898 -50.0616
-37.7198 -49.1686
-35.209 -49.6355
-40.6646 -53.1117
-34.1897 -49.3
-33.7987 -46.1548
-34.1906 -48.2938
-31.6231 -46.5524
-31.0663 -45.6802
-31.8753 -44.9101
-25.7993 -48.6837
-25.9075 -47.5191
-24.3263 -47.0625
-24.6173 -50.4472
-22.5363 -51.9136
-21.3177 -49.8549
-24.2876 -48.8457
-21.8467 -48.7111
-19.7413 -49.3746
-17.5393 -49.5686
-16.0583 -50.5287
-18.2286 -47.5906
-16.5568 -47.9381
-14.3203 -47.8623
-15.4561 -47.7043
-13.4628 -47.2625
-12.2282 -46.2907
-6.02478 -45.5433
-5.87019 -46.5204
-4.27934 -48.5766
-4.16122 -45.1809
-2.4801 -46.7271
-1.3583 -46.6147
-3.24478 -48.555
1.2819 -46.649
1.40114 -45.6594
0.32164 -47.8684
3.46521 -46.9777
1.90623 -48.9749
4.03537 -48.5472
5.5475 -46.9053
6.46262 -50.521
10.5283 -49.8323
8.56778 -49.106
8.40471 -52.4064
9.43327 -50.4673
12.0744 -48.0832
13.565 -51.0148
15.49 -48.2876
19.1084 -49.7126
18.2537 -50.376
21.4063 -48.9494
22.2104 -50.476
21.931 -48.0397
25.113 -48.7203
23.2702 -50.0775
23.4068 -47.2376
24.3962 -49.4358
26.3625 -48.5014
26.4672 -47.3854
28.5194 -45.2738
30.2505 -47.2583
30.5149 -49.9295
34.5956 -48.9625
33.888 -50.0137
34.4452 -44.9751
34.7251 -47.9744
36.9006 -47.2018
37.9885 -45.0122
41.0542 -46.6185
40.1611 -48.1693
42.4341 -48.0532
43.5437 -52.0229
41.7761 -48.9073
43.8886 -44.5214
45.261 -50.0911
49.4852 -44.0758
45.7292 -48.029
48.5324 -42.0665
50.833 -47.3756
51.3919 -49.8561
52.0576 -51.8554
55.4004 -49.2969
55.1204 -50.4907
54.5336 -51.8314
55.9486 -51.6487
-56.749 -48.7265
-55.8088 -48.2483
-54.8261 -47.7129
-49.4506 -42.8353
-50.7702 -47.4954
-49.4929 -46.5784
-48.7056 -48.8935
-50.6475 -48.6085
-46.9135 -47.1788
-45.9001 -46.9683
-43.0253 -46.2475
-43.4981 -45.3525
-43.105 -47.7509
-39.1599 -47.9799
-38.7742 -48.9559
-35.9991 -46.5116
-36.987 -48.4241
-35.1553 -47.124
-35.0176 -45.9847
-34.2824 -43.9879
-33.9233 -50.2735
-33.1399 -45.2485
-31.9389 -43.6798
-27.7769 -44.67
-28.3657 -46.5988
-27.8065 -45.7447
-26.8461 -46.38
-24.9342 -47.9758
-22.5757 -49.5832
-23.1418 -47.0099
-21.1482 -46.9425
-22.873 -48.3627
-21.0549 -48.0443
-21.295 -50.9075
-17.2518 -47.0883
-18.0044 -45.9416
-18.7651 -48.5394
-14.0907 -45.6875
-13.1883 -48.9347
-13.2334 -46.2801
-11.1975 -47.3376
-8.30624 -45.5023
-4.79799 -45.9516
-2.11903 -45.316
-3.7696 -47.362
-3.03387 -42.6965
-1.07674 -45.2731
-2.59082 -47.7379
0.327811 -45.4579
2.47764 -46.2417
4.86869 -47.9717
2.58757 -47.4523
4.74105 -49.2727
8.06299 -47.101
7.87759 -45.9528
7.39171 -47.9366
7.54426 -48.9897
11.2081 -48.713
13.106 -47.4008
12.4193 -49.0552
9.45309 -51.9697
14.5989 -48.7676
16.0871 -49.3644
19.0095 -44.5326
20.3049 -49.2865
21.3103 -46.9
21.0655 -50.0058
19.499 -45.9003
22.1433 -44.1278
23.5206 -45.8989
24.9639 -45.8735
24.2919 -44.8162
25.3231 -47.4836
26.8854 -51.1889
22.3857 -47.139
31.6573 -47.5182
32.2767 -48.7392
31.9466 -46.5568
33.9227 -45.8839
31.2006 -45.2695
36.0486 -45.9081
39.0527 -46.5346
36.2327 -42.3751
38.1323 -45.9966
40.7293 -45.6684
40.1237 -47.0408
43.3598 -47.5077
43.9897 -48.5998
42.9234 -49.1442
44.7452 -47.4121
46.3362 -45.9776
47.601 -44.3562
52.767 -48.7776
50.2017 -50.4925
49.4807 -49.7319
52.464 -49.7973
53.1285 -51.7505
53.4903 -50.0649
54.1828 -50.8515
-56.6401 -47.6278
-52.3186 -47.3898
-54.5026 -44.7343
-51.4164 -44.6962
-48.8517 -44.3566
-49.5216 -45.5419
-47.5586 -43.6713
-45.5761 -43.3044
-46.1825 -42.1426
-45.536 -45.9419
-47.1704 -44.8479
-40.4909 -45.0534
-42.0496 -43.8728
-42.6092 -48.7581
-41.7826 -48.17
-37.5331 -46.4612
-36.0095 -47.6337
-35.2681 -43.7628
-34.2287 -45.1429
-34.4531 -43.0092
-33.2793 -43.6546
-30.2955 -46.7569
-35.2757 -44.9244
-30.8168 -44.5704
-29.3459 -46.1573
-25.707 -46.5386
-24.9633 -44.5147
-23.944 -45.0375
-24.7451 -40.9382
-25.5984 -45.3985
-23.8311 -47.9414
-22.0727 -44.4181
-20.0799 -47.0685
-18.8829 -46.8121
-15.3189 -45.9981
-17.8375 -44.8024
-16.8468 -46.0289
-15.5669 -48.7089
-15.2812 -44.9688
-12.6848 -45.3371
-10.3287 -45.1726
-9.02398 -46.406
-7.90752 -44.4901
-6.5644 -44.548
-3.13939 -45.1241
-5.16244 -44.7334
-1.45254 -41.6211
-4.40024 -44.0124
-0.418724 -44.4885
-0.257393 -46.2773
1.94395 -44.5602
3.02555 -45.1945
4.40387 -46.6726
6.86953 -46.6909
7.07884 -45.2178
8.93466 -43.6321
9.74205 -48.1112
9.52339 -49.384
10.7641 -47.5574
11.8996 -50.1735
12.7831 -46.3698
13.6626 -49.296
13.0068 -50.1258
14.903 -47.1398
19.1924 -47.4952
19.8601 -43.5716
20.2181 -46.6254
20.752 -48.1733
22.9077 -44.9086
22.1949 -39.628
20.3738 -41.8426
21.4385 -41.9086
22.5309 -45.9112
24.4398 -46.7541
26.8362 -46.4172
26.2804 -45.5208
26.4867 -50.1864
27.3494 -45.0569
30.9656 -46.4026
32.7131 -45.1824
29.847 -45.1943
34.4452 -46.7556
37.0498 -45.6169
36.4224 -43.5857
40.733 -43.8633
41.4067 -47.7063
41.5302 -45.0553
42.8881 -45.9129
44.2192 -46.5773
44.8338 -45.7443
47.0238 -43.5185
47.5266 -46.5889
51.3608 -43.563
49.7424 -42.9995
48.1237 -47.6215
49.5415 -46.1211
52.6124 -46.8639
51.6795 -48.9083
55.762 -48.0841
56.8217 -49.4444
53.6082 -47.7462
-53.7988 -47.7129
-51.6077 -45.9684
-51.4063 -43.6181
-48.7626 -41.3284
-48.5424 -45.3684
-46.5436 -43.5841
-44.8096 -43.9457
-47.8498 -40.6985
-46.0183 -44.5585
-44.4675 -45.0237
-43.6898 -44.2394
-40.9727 -46.3115
-39.9451 -46.0076
-38.3498 -47.0239
-39.3991 -46.9525
-36.8297 -45.7019
-36.9782 -47.3612
-33.426 -42.6294
-34.44 -40.423
-33.2399 -40.6435
-30.33 -41.9715
-32.3982 -42.5726
-28.8188 -45.1098
-26.1266 -43.0987
-27.455 -43.5197
-25.6525 -40.1428
-24.2505 -43.7488
-22.996 -43.4783
-22.2715 -42.7238
-23.1942 -45.7723
-22.0891 -47.5379
-23.3431 -42.2049
-19.1537 -45.3921
-18.7944 -44.0945
-18.5656 -41.8314
-13.0591 -44.1859
-16.1783 -46.7786
-16.3294 -44.9634
-14.3675 -46.7203
-11.0576 -46.2171
-9.10201 -44.6155
-7.43544 -43.0602
-7.97915 -42.0423
-5.62857 -42.2581
-6.12164 -43.3668
-3.62486 -41.7394
-3.22145 -43.707
1.23992 -41.5535
0.884264 -44.3359
2.9537 -44.1761
5.08758 -45.7449
5.7116 -48.6294
4.94673 -44.1441
6.83996 -44.1679
8.33604 -44.6085
9.00121 -46.6895
9.39074 -44.7618
9.45286 -45.8057
11.7254 -46.8068
13.9762 -46.5833
16.1026 -46.9667
13.6497 -48.2508
15.9614 -45.9862
19.7717 -48.3344
18.1077 -47.0986
18.3127 -46.1038
18.2134 -43.701
21.7283 -45.1989
22.0175 -41.0398
22.4548 -42.0768
22.0692 -43.1009
23.2744 -43.9347
25.4851 -44.9012
25.8089 -46.501
26.2858 -43.2798
27.6336 -47.1424
29.2424 -44.3185
28.6423 -46.6289
33.6835 -47.4628
31.2915 -44.2592
33.5277 -44.4665
35.0333 -45.8435
36.445 -44.7612
41.9711 -42.794
39.8473 -44.6317
43.8545 -45.5282
41.7751 -44.0917
44.1995 -43.5559
45.8566 -43.5747
46.4058 -44.46
48.4676 -43.0541
50.2013 -40.5702
50.5942 -45.9565
51.6079 -46.6982
50.6088 -48.4227
53.8831 -45.2348
51.8211 -47.8733
54.8893 -44.6133
54.5541 -48.3691
-50.6959 -45.4181
-52.3489 -45.2948
-54.4208 -43.3219
-53.2187 -44.4556
-52.8497 -42.2261
-51.9003 -42.5078
-48.5027 -42.4325
-49.146 -40.2859
-46.766 -41.1253
-45.8176 -40.6983
-43.2242 -42.1726
-47.3394 -42.0823
-42.542 -44.883
-41.0188 -43.864
-37.2972 -43.764
-36.1494 -41.6774
-41.9596 -46.76
-36.5397 -44.4345
-34.1229 -41.454
-30.3066 -39.128
-31.851 -40.77
-32.6585 -41.5058
-28.398 -43.1993
-31.245 -42.7328
-26.7943 -45.0311
-24.9865 -42.9036
-25.75 -42.0868
-27.1461 -42.5245
-27.9117 -40.8067
-22.4082 -39.7099
-23.0915 -44.5166
-24.5219 -42.0011
-21.0707 -43.7987
-22.155 -46.0663
-20.4356 -45.8986
-17.8088 -43.434
-12.9947 -42.7534
-11.1313 -42.9188
-10.6393 -44.1222
-12.2261 -42.0648
-8.88003 -42.5578
-8.43957 -43.4832
-10.8791 -39.9639
-8.85551 -40.2517
-6.61344 -42.4198
-4.04382 -42.7836
-4.70841 -41.7411
-2.08654 -43.0379
-1.61945 -43.9094
-0.517814 -40.6172
0.16967 -42.4531
2.14144 -43.3341
6.09677 -45.9695
5.99259 -43.5249
7.89658 -43.653
7.93862 -42.6117
8.51126 -41.4437
11.8507 -41.9358
10.9445 -40.9422
10.5034 -44.8076
10.8508 -45.813
11.8649 -45.7066
17.1627 -46.1315
13.9087 -45.5768
14.0157 -44.5335
14.0437 -43.4943
17.0591 -47.2843
19.9868 -44.8061
20.9718 -44.4566
23.1963 -40.2823
23.5098 -41.4707
23.1338 -42.9304
24.2345 -43.6224
25.923 -41.8038
29.4005 -37.0897
25.1476 -42.7142
27.774 -45.9939
28.5847 -48.4723
29.6283 -46.3368
35.0489 -41.675
33.1601 -46.5439
32.3947 -44.1462
34.3895 -43.8754
39.1603 -42.1766
38.5781 -44.2082
41.6414 -41.7363
42.7543 -44.6397
43.8847 -41.6315
42.8162 -43.6003
47.7232 -41.461
45.6004 -42.1263
48.7688 -41.0415
49.6788 -41.4901
51.7948 -45.7096
52.9925 -45.9075
53.9342 -43.3868
54.2602 -42.3614
57.006 -45.1768
56.7625 -47.6599
53.6996 -46.6082
55.889 -46.9395
-53.6874 -45.7967
-52.7709 -46.4054
-52.2564 -44.1368
-53.9098 -42.2008
-48.6223 -38.8541
-50.0187 -41.012
-50.9575 -38.1827
-47.5704 -39.2602
-44.9052 -42.5455
-45.2972 -41.6007
-43.9604 -42.9743
-39.2104 -45.1778
-39.6222 -44.1884
-38.2687 -45.6353
-37.611 -44.7887
-37.9507 -48.1074
-37.4473 -42.6789
-35.2401 -41.0321
-35.166 -39.7343
-32.4736 -39.861
-36.5995 -39.6735
-31.5488 -41.7185
-30.4155 -43.627
-28.8775 -44.1062
-26.5163 -44.0753
-26.989 -40.4374
-25.1669 -38.884
-24.4453 -39.79
-26.4899 -39.1727
-21.665 -38.4759
-23.6468 -41.1249
-21.2528 -45.3146
-20.1923 -44.8892
-18.981 -43.0904
-16.8102 -43.8504
-14.2117 -44.6382
-11.6538 -45.3402
-10.0019 -42.0261
-11.9737 -44.3916
-10.4671 -41.0785
-13.9917 -41.9006
-8.96503 -41.4512
-12.9235 -40.4442
-6.96741 -40.2995
-5.03525 -43.2471
-5.96465 -41.2241
-4.13099 -40.7143
1.10247 -39.6029
0.117576 -41.4365
-0.83173 -42.5065
2.23364 -42.0026
4.29694 -44.954
3.74644 -45.9196
4.2196 -43.0236
10.1 -42.6694
9.32988 -41.9973
7.39526 -41.5063
12.8415 -41.7899
11.1681 -43.7577
11.9317 -44.4036
14.9319 -46.1144
13.2417 -42.7159
15.0342 -43.8527
15.9153 -44.5312
17.8502 -44.762
20.8057 -45.5764
20.5846 -42.8255
20.8708 -40.8926
22.451 -38.0904
25.3205 -40.4405
24.2814 -40.6092
24.6774 -41.5648
24.1328 -42.6273
27.7929 -39.4663
29.0861 -47.5521
25.2545 -43.7382
29.2347 -43.2165
30.2913 -42.9244
35.1466 -43.0286
36.107 -40.8479
32.7995 -43.2227
35.3319 -44.2256
39.8265 -43.0579
40.1992 -42.1089
40.9396 -42.8618
43.3635 -42.7532
44.6535 -40.8681
45.2312 -39.7501
45.7614 -41.1182
48.5821 -45.1037
46.711 -41.8486
48.6103 -39.1193
47.8509 -40.4475
51.361 -40.3885
53.2918 -44.2446
55.3342 -42.4329
56.0287 -41.6846
54.8696 -45.7981
-55.6603 -45.2316
-55.442 -46.6438
-54.2683 -46.6251
-54.7581 -45.7249
-52.6807 -43.2336
-51.0893 -41.3317
-50.2649 -39.5155
-50.3873 -42.3155
-49.5111 -36.9206
-43.3756 -40.6497
-42.9148 -43.3691
-41.0916 -42.6765
-39.9708 -42.9443
-38.5625 -44.2917
-38.9451 -43.1365
-38.4141 -42.1407
-40.2202 -40.6332
-39.4002 -42.0654
-36.1853 -42.8774
-38.7307 -41.1332
-37.6782 -41.3306
-32.4805 -38.6673
-33.5649 -39.4004
-31.0438 -40.0862
-30.4609 -40.8981
-29.1097 -41.6497
-27.515 -39.1543
-27.768 -35.1606
-25.0101 -37.8514
-26.9068 -41.5196
-23.7368 -37.8626
-23.3876 -39.9916
-20.1511 -43.0172
-21.4373 -40.8549
-18.1057 -40.7584
-18.8417 -39.7264
-17.2652 -41.4856
-15.4534 -43.9752
-12.11 -43.2648
-13.0568 -41.4231
-14.1282 -42.9587
-9.60809 -43.351
-13.9691 -40.866
-11.9816 -39.5814
-8.03373 -40.8619
-9.8569 -40.257
-7.11345 -41.5517
-2.47731 -41.5732
0.482286 -40.4013
0.311927 -38.3708
0.253495 -43.466
1.16237 -42.9774
3.93948 -44.0016
4.09834 -40.99
5.4245 -42.5744
6.37439 -41.862
5.74597 -44.7224
6.29632 -39.2011
4.83924 -38.0052
12.2237 -40.5087
10.0369 -43.8135
11.7497 -42.9506
12.6215 -43.6421
15.3893 -42.7184
12.9138 -44.9991
16.3358 -42.1333
14.9522 -45.0846
16.8668 -45.0097
16.6746 -43.7818
19.6819 -40.9987
22.2235 -36.9768
23.4846 -37.8861
23.0501 -38.9133
23.9503 -39.6099
25.0299 -39.455
28.8376 -39.3915
26.3415 -44.3902
27.2395 -43.8521
30.2902 -44.1678
34.7379 -39.4395
34.7959 -40.4943
36.0873 -37.0178
35.6103 -38.5361
33.8707 -42.9871
37.432 -42.9825
36.9675 -41.3913
39.3541 -39.1364
41.3156 -40.123
44.3856 -42.5249
46.9285 -38.6332
43.5103 -40.602
46.2441 -39.8926
47.5184 -42.4567
49.4875 -39.792
50.9563 -41.4622
53.269 -41.94
52.2673 -44.5569
52.687 -43.0883
56.7719 -42.6709
55.1579 -43.4475
54.6636 -46.92
-56.5199 -44.4631
-55.4239 -42.8027
-55.2576 -43.8941
-53.163 -40.7901
-54.9172 -41.8122
-53.1352 -38.8794
-52.152 -41.2238
-51.238 -39.2521
-44.0674 -41.5941
-42.1286 -42.7317
-40.3468 -41.6828
-41.0423 -38.5942
-41.7317 -37.8007
-41.1442 -36.9003
-40.1253 -39.6097
-39.9413 -36.5767
-39.1949 -37.4515
-39.2786 -38.4537
-35.2155 -42.1554
-38.901 -40.0386
-36.6751 -40.8263
-30.5857 -38.1538
-31.5464 -39.1652
-28.0801 -41.9854
-28.2883 -39.8321
-28.8203 -37.4474
-27.0944 -38.124
-26.0661 -37.7547
-25.4536 -35.4491
-21.6295 -37.403
-22.7131 -38.7111
-20.5204 -37.786
-19.1538 -38.7787
-21.3279 -42.2659
-19.4999 -42.1762
-16.1296 -41.9392
-17.0018 -42.4697
-16.1107 -43.0515
-15.0792 -35.8616
-15.927 -40.8827
-15.009 -41.9662
-9.31575 -39.3183
-8.01724 -39.6355
-6.26643 -39.4213
-4.17143 -39.0355
-5.19574 -38.9517
-5.15482 -40.1812
-3.47013 -39.7969
-1.445 -39.3654
0.606443 -37.198
3.37114 -42.0964
3.10164 -43.051
5.18919 -39.2502
4.22494 -38.8718
5.49049 -41.2498
7.78727 -40.547
6.84474 -42.7403
8.35668 -38.9825
8.84293 -40.4031
11.3362 -39.8049
14.1082 -42.082
14.1705 -40.9657
14.8397 -37.0214
14.8237 -40.1644
17.6039 -40.7995
17.7581 -42.8087
17.4024 -41.8732
18.8762 -42.9255
20.0323 -39.9907
21.1972 -39.8958
24.5425 -37.6342
24.1862 -38.6307
25.5677 -37.3182
26.6334 -39.5023
27.8497 -38.463
26.2669 -40.8026
27.7307 -42.5154
28.2898 -43.9652
33.0548 -42.2642
33.1541 -40.9577
32.8814 -39.828
37.4159 -43.9812
35.9252 -39.6343
37.8997 -40.6958
39.4434 -40.9921
40.6167 -41.1042
42.3706 -40.4915
42.7064 -41.7478
45.7024 -38.7541
47.641 -39.4555
47.6574 -37.7554
46.7888 -40.8233
48.9995 -37.4253
52.49 -41.3017
52.0083 -42.2877
50.6751 -42.4733
54.7249 -41.1926
-56.8778 -43.4102
57.0656 -41.6801
57.1291 -46.4519
56.1857 -45.8424
-56.4954 -45.8102
-55.6609 -40.8483
-54.4825 -40.8231
-55.5757 -38.7342
-52.4466 -36.9354
-49.6367 -38.6216
-46.7686 -40.0677
-48.7591 -37.572
-45.5429 -39.7235
-42.318 -40.8859
-42.2578 -39.4497
-41.1604 -40.0126
-40.2427 -37.9077
-42.2195 -35.0242
-40.6816 -35.9181
-38.9903 -35.9734
-37.9651 -38.2544
-38.598 -35.027
-34.7124 -38.5364
-37.6454 -40.2793
-33.518 -36.7761
-28.9435 -39.0593
-29.5411 -38.2436
-28.2627 -38.3117
-30.0487 -37.2527
-27.4568 -36.1488
-26.7507 -35.326
-26.188 -36.4683
-24.0818 -38.8018
-22.618 -40.761
-19.2014 -37.7517
-22.1348 -41.6541
-20.4012 -41.4543
-19.3045 -40.6586
-15.7182 -39.8408
-15.1182 -38.8679
-14.98 -40.5265
-13.8057 -38.5351
-12.8861 -39.1304
-11.6263 -40.652
-10.3922 -39.0472
-7.6767 -38.0755
-7.19777 -39.0182
-7.58033 -35.1265
-7.45678 -37.0417
-2.78757 -40.5919
-3.37014 -38.2662
2.34425 -39.8162
2.77765 -40.7389
4.60863 -41.9029
3.33182 -38.4436
5.81279 -40.2845
5.70272 -37.0903
7.31592 -35.5691
7.33646 -39.2949
6.79894 -40.6839
12.2799 -39.0189
10.2166 -39.9587
10.9487 -36.7106
13.1703 -40.8508
9.70888 -40.989
14.4818 -38.3238
19.1494 -41.9007
15.8158 -40.2997
16.6806 -41.1783
18.6078 -40.8219
19.1172 -39.5434
20.5003 -39.0211
21.5819 -38.7681
21.2935 -37.6515
24.7616 -35.9999
25.4926 -38.4368
29.6766 -40.1677
28.1779 -41.5174
27.0088 -41.6303
31.2358 -43.2385
30.2988 -41.8864
34.053 -41.8276
30.7996 -40.7577
36.5075 -38.0947
36.9553 -40.2149
38.1915 -41.9328
38.9414 -40.0763
41.7471 -37.9185
40.2207 -39.7995
41.8174 -39.173
42.7575 -39.5735
44.6709 -38.2485
46.6657 -37.3234
45.298 -35.6266
45.5526 -37.7566
46.777 -36.2743
49.4488 -38.492
50.4361 -39.2948
55.6406 -39.4568
55.5832 -40.4981
57.1648 -37.5495
56.5857 -40.5797
-56.37 -41.905
56.2828 -43.9936
-54.6714 -37.9634
-56.7058 -40.648
-55.1078 -39.6948
-53.8577 -39.5822
-52.703 -35.5101
-52.4225 -40.0016
-51.439 -37.2486
-50.4934 -36.4682
-43.7914 -38.5578
-43.2697 -39.6279
-43.6308 -36.4651
-43.4227 -37.5079
-42.4929 -36.618
-43.2694 -35.417
-38.1855 -37.0742
-41.1405 -34.6114
-40.0722 -34.1519
-38.898 -33.9882
-36.6711 -38.5804
-37.5784 -39.2434
-33.1484 -35.6283
-33.5729 -38.281
-34.626 -34.3672
-29.7101 -42.7597
-27.501 -37.1772
-30.7014 -36.3925
-27.1655 -34.3621
-24.8579 -34.6253
-22.7179 -37.6708
-24.9708 -36.5391
-19.9088 -36.9333