ITEM: TIMESTEP
15800
ITEM: NUMBER OF ATOMS
10000
ITEM: BOX BOUNDS pp pp pp
-9.9000000000000000e+01 9.9000000000000000e+01
-9.9000000000000000e+01 9.9000000000000000e+01
-1.9800000000000001e+01 1.9800000000000001e+01
ITEM: ATOMS x y
-94.0219 -91.4415
93.7042 -95.9842
-94.2376 97.6345
-93.27 94.7457
-91.1792 -93.4795
-87.3512 97.4686
-85.142 98.9094
-82.6641 97.3309
-84.0006 -98.0605
-82.0032 -97.9919
-72.319 -91.7772
-77.5406 95.1154
-77.0603 -96.7801
-75.5716 97.4984
-77.0067 96.1209
-65.3551 98.4134
-66.0791 -97.8698
-59.9171 -94.7814
-56.1964 96.4909
-63.304 -96.2455
-62.3961 95.9636
-63.706 95.0428
-59.184 -98.7246
-57.7479 -94.6602
-53.3634 -97.7778
-58.2073 97.579
-46.5181 94.6981
-41.426 93.6086
-39.278 -97.4377
-36.8213 94.5446
-47.2998 -98.4522
-40.4069 96.8671
-35.105 -96.7089
-27.5644 -95.7101
-34.5734 -94.3332
-33.8139 86.6923
-31.2778 -89.1214
-22.0474 97.3403
-23.545 92.6956
-16.3528 91.2739
-13.4398 -91.9784
-15.7272 90.0883
-21.8282 -94.7319
-19.4277 97.8269
-16.2223 -93.464
-11.0833 98.2075
-9.89152 -97.6501
-4.60642 95.2877
0.523788 99.0092
-1.30917 -95.424
2.18993 -95.0095
3.64278 98.5445
6.63294 -96.9217
8.3532 -91.5297
7.66576 97.0743
8.15877 98.4581
14.4742 97.4044
9.7821 -95.9684
13.6372 -95.5097
18.0127 91.1982
20.2987 -95.5217
30.8216 93.3903
22.2363 98.5218
19.2596 -95.344
27.8821 95.6239
26.7196 -91.5204
29.3956 -93.6987
35.5268 -87.0387
34.4572 93.6828
44.4601 -95.1134
42.2273 96.6363
40.5467 94.7054
42.4795 95.0406
45.5596 94.2049
45.6428 -96.46
50.4174 -98.2969
52.1453 -95.3062
54.2574 -98.2066
55.8802 95.5801
57.5326 98.3584
62.5741 -95.7713
59.0714 94.7202
63.914 -91.765
61.3271 94.4357
64.6817 -93.2321
67.4783 -95.4751
76.5382 97.2122
73.6056 94.9998
76.751 94.1144
83.9314 -89.0441
78.027 98.1316
81.4809 98.229
86.3056 93.7984
85.3921 98.7715
90.954 -98.9234
98.5164 -95.6264
97.6832 -98.4337
90.308 -87.4158
95.2323 -98.6478
-97.8123 -96.7124
92.6746 -91.9154
-93.6546 -93.825
-90.9083 94.1107
-91.841 -90.9039
-95.8878 97.0087
-93.7614 -96.8813
-86.5909 -93.9853
-87.4151 -95.0084
-81.1392 -97.3408
-83.2617 -95.2855
-76.3326 -90.9905
-67.8551 -94.4117
-80.5545 98.2405
-74.6062 -96.5958
-77.5268 97.3918
-65.4722 -96.3425
-70.1477 96.6609
-64.4809 -95.8757
-64.4572 97.7332
-59.9911 96.9445
-60.4702 -91.4913
-62.7003 -94.5812
-59.4605 -90.0223
-59.7368 -93.4716
-52.0347 -93.6322
-47.276 -96.8825
-50.492 -96.9641
-44.8364 -96.8067
-40.6877 92.7137
-34.7812 -98.0035
-42.5195 94.7021
-32.3839 -97.617
-31.4106 -87.732
-42.0299 -89.1833
-24.6274 -93.4575
-29.7557 -98.2555
-31.8916 97.3931
-19.6983 96.0653
-22.6434 -95.7769
-19.804 92.0177
-19.3082 -98.2146
-18.9697 -96.9959
-17.8815 -96.4978
-14.4527 -94.355
-12.0717 -96.0546
-5.96404 97.2546
-8.39387 -93.3759
-5.90885 -95.4246
-3.54485 98.1624
0.371094 -95.5168
2.53444 97.7674
8.09873 -98.0684
2.76797 -92.7432
10.8971 -92.9398
9.81804 -92.0001
10.3411 -97.1632
8.64473 96.6315
7.59812 95.3623
13.1897 95.5488
11.5444 96.348
20.3645 -97.552
25.3121 -93.2336
18.3485 -95.9279
29.2262 -94.9033
24.0642 -94.1858
22.8716 -87.9503
29.7337 -92.6009
31.0345 -98.0194
35.4185 -98.6388
33.7868 97.7508
36.7121 -97.4165
38.2397 95.6063
46.9218 96.1103
45.1836 -89.8333
52.5931 -93.5109
55.1339 -97.3811
47.3286 98.3515
56.8837 97.4194
61.2537 98.0596
59.5073 -96.5535
61.9814 -97.3042
63.0775 -94.1431
67.2655 -91.1097
65.3492 -92.2305
62.3547 98.6484
68.3193 -97.5832
70.2196 -94.3001
72.824 -97.1492
85.0901 -96.0811
76.379 -97.504
84.7554 -94.0463
83.3828 96.8045
88.9254 96.6257
83.981 98.4829
82.5102 -94.265
88.015 -98.011
92.8647 -94.0729
93.1361 -97.0136
-97.1213 -94.8063
-97.7106 93.5542
98.4573 -88.4637
97.5133 -96.7291
-98.204 -95.6547
-90.9199 98.9394
-87.8549 -93.1426
-92.6126 -91.9573
-91.6577 97.6392
-89.6085 98.7725
-84.2558 -94.5523
-77.7058 -95.3614
-78.0872 -96.9108
-78.1224 98.4096
-71.1263 -92.7024
-73.3448 -95.7688
-72.2163 93.6739
-67.6549 -91.1462
-61.6998 -91.686
-61.5404 -96.7661
-70.9282 97.3321
-61.542 93.4346
-58.4944 -92.9128
-58.3151 -95.6382
-57.1139 -88.7357
-56.9022 -97.0161
-51.3333 -91.9898
-46.1038 -95.6526
-53.0842 -93.2287
-46.0541 -98.2398
-43.4735 -95.2061
-41.1731 -97.1779
-30.325 -91.9612
-34.1939 -89.9753
-37.2587 -96.9043
-28.4965 -93.7885
-34.1265 -92.0289
-24.2241 98.4761
-26.5527 -97.6105
-26.8267 -94.4289
-24.8416 -92.0279
-17.6044 -91.6818
-23.2371 -94.7535
-21.8627 -92.4478
-15.2159 -86.2763
-21.4744 -96.6079
-15.3698 -92.1673
-12.0967 96.3508
-7.88565 -94.305
-13.1927 98.6538
2.10461 96.7383
-2.36392 -94.1757
8.02646 -89.9736
10.503 -94.8256
9.26703 -97.7504
10.7368 -88.6503
1.92945 -90.057
17.1651 -93.5079
17.87 94.9601
18.5861 -92.4763
21.8315 -93.5267
21.308 -97.1334
17.9139 -89.7581
20.1424 -91.4098
27.1829 -96.5715
25.9242 -96.3887
23.6667 -88.9937
23.1583 -90.7161
33.4764 -86.4858
32.5745 -92.777
33.6928 -93.4975
37.9197 -98.1953
36.788 -93.9411
39.6422 -95.8598
41.237 96.252
42.9686 -96.3794
54.1222 -89.6746
48.2357 -96.3761
56.8577 -96.4117
60.0967 -92.5846
61.0271 -98.4304
57.9586 -96.943
63.6622 94.9129
55.3711 -98.6326
61.5166 -90.4975
64.8701 -90.3829
61.5765 -95.0688
70.4863 -93.1658
73.2464 -95.7332
75.7751 -94.9912
72.7102 -93.2562
78.3001 -93.6165
84.3207 -92.0733
72.4338 -91.0394
90.8708 -93.4435
91.8131 -94.0154
86.613 -97.9473
91.2928 -97.4254
90.9892 -90.7725
81.0925 -94.7075
93.3169 -98.3402
98.0956 -90.0521
-98.5708 -91.3642
-98.355 -88.1229
-93.7957 -87.4205
-97.6273 -93.0608
-90.2539 -94.3645
-87.8332 -96.0949
-86.2866 -96.7825
-83.1934 -96.5797
-79.533 -96.2406
-78.5892 -93.3641
-82.3041 -92.882
-67.3176 -95.6573
-74.5304 -91.5077
-67.6408 -92.146
-71.4578 -94.2274
-68.353 -90.3105
-73.4807 -92.9811
-63.0178 -98.4202
-64.8749 -90.9705
-60.9379 -94.5967
-58.4195 -86.3659
-59.4748 -91.9519
-57.8428 -87.8092
-51.3036 -87.8754
-55.3058 -94.8313
-52.5189 -95.3082
-53.8793 -89.6469
-37.4688 -95.5329
-42.1198 -91.4792
-42.2501 -96.897
-35.7641 -91.8275
-36.0908 -94.4692
-40.1277 -91.6121
-37.2432 -87.1028
-33.6373 -90.8318
-30.4635 -90.7139
-26.3453 -92.9631
-24.6465 -98.3307
-23.6994 -89.5812
-20.3311 -91.2272
-17.51 -90.462
-22.0765 -91.3788
-15.795 -90.226
-13.5346 -93.6578
-11.9438 -94.1818
-9.91675 -95.2717
-11.6121 -98.0751
-10.8094 -90.9446
-6.26952 -88.6657
-3.88842 -97.9133
-4.29627 -88.1375
5.2103 -91.7385
8.96996 -94.4012
4.7164 -93.7393
13.4265 -98.3825
15.8049 98.5188
14.9508 -95.3079
14.48 -91.2081
18.3412 -87.5807
18.8064 -97.5876
20.0618 -86.7142
21.9617 -92.2128
21.8076 -95.9807
28.6182 -91.4321
30.6557 -87.6611
34.0012 -89.0607
27.6671 -89.6708
33.7799 -90.2003
36.8551 -89.8258
38.208 -92.2186
42.9236 -95.2409
38.5142 -88.9003
47.0455 -93.4384
42.0225 -97.7494
40.1012 97.0914
43.3354 97.1416
56.7356 -92.5744
52.6843 98.5228
48.9963 -92.4991
55.6957 -92.8002
62.7019 -91.4696
56.1429 -94.7126
57.3114 -90.1273
58.1068 -94.1166
60.7617 -88.5686
71.443 91.9911
79.1611 -91.4312
74.7766 -90.7123
74.413 -84.067
87.0832 95.803
80.0467 97.0697
74.5921 -93.929
90.5795 -92.2924
85.6962 -89.2999
89.0167 -87.182
89.2859 -94.3941
89.9164 96.2998
87.3275 -93.1706
94.5928 -97.534
-98.9352 -93.9389
96.6407 -96.0765
-90.1968 -90.4321
-95.515 -86.9505
-94.8127 -90.0345
-88.6899 -87.5321
-86.5005 95.5829
-79.7696 -93.452
-84.4069 -92.1875
-74.7786 -95.2001
-75.2817 -90.6511
-80.3006 -87.8722
-82.0689 -95.6248
-71.6406 -89.159
-69.2995 -91.2806
-66.2505 -92.2155
-65.8418 -90.0587
-65.2955 -94.8586
-63.353 -90.0623
-63.9197 -94.0367
-60.9725 -88.0195
-60.7697 -86.2735
-59.0682 -84.9906
-57.4053 -82.445
-59.9188 -87.6331
-50.9994 -85.5131
-54.3346 -98.4928
-47.2079 -94.4921
-43.7389 -94.0972
-43.5135 -98.0215
-34.2491 -93.2218
-47.2694 -93.2887
-48.3127 -93.7328
-29.5108 -87.7354
-38.5316 -93.766
-37.3969 -84.5998
-24.3797 -94.7902
-25.9037 -91.1494
-21.903 -84.9407
-25.0228 -88.3794
-21.9387 -89.1942
-20.3932 -88.9416
-18.3342 -92.8219
-16.0898 -88.5757
-14.1505 -92.7546
-11.7 -92.0915
-10.3243 -88.0635
-9.22086 -85.2325
-5.38305 -91.9304
-1.3941 97.9486
-9.63983 -89.9801
-1.48275 -93.058
-0.014828 -88.7382
5.71729 -89.2135
5.87524 -84.0237
9.73957 -89.734
9.51581 -91.0503
6.43716 -90.5642
12.7245 -88.7131
19.1164 -88.6527
18.6911 -86.1029
20.4699 -93.4879
16.3134 -92.2803
23.0569 -91.916
25.163 -88.1376
24.5694 -96.2914
27.9691 -88.5178
29.1056 -89.5553
36.4781 -83.7603
39.1221 -97.4209
36.3738 -91.5764
41.569 -85.4945
42.776 -93.5524
42.7282 -88.9458
50.9743 -87.7894
49.3937 -95.8163
48.2309 -91.3401
54.6923 -88.1688
57.9763 -91.2688
59.2106 -91.263
53.377 -97.3161
61.2161 -93.1916
54.1742 -86.303
76.0962 -88.9178
70.7088 -92.0494
69.8941 -98.9982
68.5215 -93.9825
71.5664 -93.8375
65.998 -89.182
75.7039 -86.4561
82.5978 -90.1197
80.7952 -97.2854
81.5728 -93.1705
78.3026 -96.01
75.9487 -87.8092
83.367 -93.7355
91.4609 -84.9986
89.1802 -91.3274
96.2206 -89.411
-96.2292 -92.0737
95.7115 -92.3744
92.5929 -90.1288
97.3868 -88.2286
-92.9182 -88.6442
-90.4386 -92.2126
-84.3456 -90.2371
-86.1495 -90.9499
-85.4707 -92.6226
-84.7624 -97.3238
-87.8911 -78.758
-80.5233 -91.1772
-80.1455 -95.4213
-70.3941 -91.3846
-68.8583 -87.3356
-76.9013 -88.8143
-67.7373 -96.6756
-63.1257 -87.4379
-70.9517 98.89
-67.9534 -85.3244
-58.0849 -90.6244
-56.7319 -83.3735
-61.6096 -84.3996
-59.5511 -79.0642
-56.864 -93.9483
-54.277 -87.6732
-49.2943 -92.623
-54.6851 -84.9321
-49.2767 -88.4484
-54.6219 -86.7059
-45.8301 -97.0687
-52.1349 -90.8995
-48.2412 -95.9332
-39.7736 -87.9458
-28.6268 -82.7896
-34.8332 -82.8236
-38.0843 -83.4202
-36.8058 -88.0928
-26.3009 -85.3318
-24.9858 -86.6859
-21.8057 -87.8096
-25.6695 -96.0969
-17.142 -85.1778
-15.6988 -85.3115
-11.1882 -89.1887
-11.5075 -83.4352
-10.5657 -93.6222
-8.48744 -86.6454
-6.57308 -86.5741
-10.7427 -92.5086
-3.50913 -93.6462
2.9424 -88.1043
0.624573 -92.6058
-3.09619 -87.6364
-1.38874 -86.1003
10.3179 -87.0717
11.55 -90.885
6.64359 -86.7738
13.6285 96.6289
18.7649 -90.4315
11.5829 -94.5076
16.4061 -84.6848
23.9423 -86.5675
15.2199 -92.0269
22.1874 -89.4316
25.6261 -82.2001
21.7078 -90.7166
39.906 -85.9183
28.8072 -80.0409
31.4472 -82.4775
30.9533 -95.4676
35.894 -92.4484
35.1579 -79.4616
45.6753 -94.4558
47.2408 -91.7638
47.5531 -86.4959
51.7446 -89.2446
48.4774 -88.9687
49.9416 -85.5101
56.2052 -89.3581
54.0103 -94.7353
59.1512 -92.931
55.7434 -86.5736
56.3989 -93.6549
68.6911 -92.2231
62.1641 -87.8694
69.6175 -97.2144
67.163 -88.616
73.556 -89.2897
73.1988 -87.3311
79.7462 -87.1873
73.8109 -93.2933
79.6004 -95.7791
86.3243 -94.7045
88.8553 -95.7739
77.0047 -90.9969
83.4037 -90.8683
86.906 -91.7904
93.0699 -92.8898
93.9767 -93.4759
95.778 -83.7459
-98.6039 -97.9327
97.1478 -92.0296
98.1425 -84.1081
-98.62 -85.8005
-94.971 -85.9987
-82.7499 -78.7849
-85.5468 -86.9722
-84.8036 -88.4398
-81.3031 -88.5013
-83.9988 -85.9805
-76.4923 -92.5411
-77.362 -91.4781
-73.4536 -90.7896
-73.4384 -89.0892
-70.698 -94.8894
-69.4837 -90.1651
-66.8144 -89.2606
-64.7768 -92.7481
-62.5773 -84.9546
-68.9151 -88.8976
-59.6277 -82.1569
-46.4792 -86.9351
-61.8 -90.1045
-47.658 -88.3859
-51.2752 -89.4899
-56.1061 -88.6984
-49.7106 -87.4679
-57.1143 -91.2141
-44.6058 98.4727
-46.8517 -90.2291
-49.1471 -94.4567
-33.7142 -75.1954
-32.1583 -86.4315
-37.7745 -94.4884
-38.3075 -89.6559
-33.6378 -87.5407
-28.8372 -86.6729
-34.1508 -88.5363
-29.2296 -90.3062
-18.372 -85.2461
-18.5456 -79.2871
-19.5769 -81.9894
-22.9163 -87.7244
-19.2818 -90.1515
-17.6986 -89.1469
-14.9764 -87.9099
-15.3669 -83.9682
-7.82373 -89.5456
-5.45584 -93.3656
-5.31961 -94.4614
-8.89569 -94.9105
-5.16919 -86.6157
-0.774524 -85.22
7.13284 -85.2229
12.5845 -84.2064
2.83572 -76.6715
9.39336 -88.1083
11.634 -86.1058
15.5188 -87.8249
20.4761 -80.6586
18.8671 -79.6138
16.7141 -89.1453
26.2533 -84.7961
20.1426 -87.7595
23.9817 -81.2872
22.9454 -86.5264
25.1711 -87.0412
36.1961 -86.0952
37.0553 -87.7068
35.978 -89.2464
31.2051 -88.8872
35.5289 -90.3275
40.2606 -84.8501
39.9804 -92.7528
52.3654 -92.1127
44.3719 -92.7349
52.4921 -86.2966
52.6925 -88.5035
58.1547 -84.95
50.7246 -84.8011
53.0062 -87.1662
51.6472 -90.4717
56.7874 -86.8318
58.912 -90.04
56.5284 -88.3559
64.3388 -88.9156
70.613 -86.645
77.1795 -85.0421
73.8522 -91.5086
74.8556 -88.137
78.3436 -89.9663
81.5469 -84.6935
80.8524 -88.1181
79.4932 -89.505
85.7133 -87.5435
78.1511 -88.3911
85.7601 -85.8627
91.2621 -81.9678
93.5415 -82.4434
95.7679 -85.1548
96.7004 -85.5176
92.0506 -82.7761
96.8549 -86.9181
-87.2209 -86.8449
-97.1511 -85.0181
-86.106 -87.8059
-89.3266 -86.1215
-87.1233 -82.7325
-83.5914 -91.2067
-84.5383 -84.1121
-82.1105 -85.6394
-74.4993 -90.0191
-74.6261 -84.7716
-77.2355 -87.4044
-64.7211 -86.5866
-80.7488 -82.6827
-64.6626 -88.2072
-69.6073 -97.8549
-74.3529 -87.8001
-65.8226 -88.2335
-62.4778 -81.6377
-61.732 -85.759
-59.0647 -83.6474
-56.956 -85.2303
-48.2919 -87.2597
-43.6405 -91.8942
-48.5855 -91.727
-45.4555 -86.0423
-45.4786 -87.1964
-41.6226 -85.0397
-43.7232 -87.6253
-37.6826 -88.5894
-41.9955 -88.1781
-35.0997 -87.6627
-34.1563 -79.8545
-38.4536 -85.6533
-25.1168 -85.2088
-32.2065 -80.0317
-27.9412 -89.3783
-18.296 -83.931
-19.1387 -88.2238
-20.4348 -80.9781
-11.604 -87.7246
-13.6419 -86.5863
-16.0653 -81.2992
-10.2879 -84.7534
-12.9545 -82.0299
-5.43147 -83.9791
-3.56515 -90.7242
-6.19509 -81.0338
1.68121 -87.3256
-8.46476 -79.1644
-1.39691 -88.7275
3.6143 -80.9135
4.61935 -87.8554
5.06994 -81.6686
8.10196 -82.6737
10.909 -85.3573
9.9101 -80.3537
17.8682 -85.1705
21.649 -85.2507
23.5154 -77.5772
24.8568 -77.3508
19.9118 -83.4676
24.8457 -84.864
25.9503 -83.1901
23.9169 -92.9043
33.3324 -76.468
33.3668 -81.34
41.3267 -81.4689
40.8933 -88.8619
40.7478 -82.3559
41.9431 -92.637
44.0083 -86.1637
50.8711 -78.912
37.5401 -91.0137
46.6651 -88.6481
46.9904 -90.1487
50.53 -92.4091
56.9995 -79.9012
57.6099 -81.7849
54.0586 -82.4899
54.5995 -80.3685
63.7142 -88.0643
62.616 -89.4011
63.1021 -83.7997
72.8505 -77.8369
73.6889 -94.5721
74.1733 -86.6952
84.8234 -86.5327
83.8749 -75.9748
79.928 -84.0642
79.9773 -81.4926
84.5653 -90.3972
84.7066 -88.3166
86.9599 -89.1525
88.2748 -89.8502
92.6158 -84.694
95.0053 -87.8875
90.3305 -85.925
96.0153 -77.9977
-97.1956 -78.5988
98.7666 -82.8501
-87.0335 -81.688
-93.0803 -85.8681
-95.3171 -81.847
-97.6646 -90.0341
-86.5138 -84.5673
-86.0506 -81.831
-79.6105 -79.1401
-84.3062 -87.0664
-82.8107 -80.1241
-76.4444 -82.3849
-78.3532 -80.7386
-72.5088 -79.6053
-67.5803 -88.1227
-69.7528 -83.5938
-68.6286 -86.0544
-64.5216 -76.6327
-63.4588 -85.8391
-61.3139 -83.3589
-53.2658 -86.4388
-57.3664 -78.4192
-56.6445 -86.4805
-54.0918 -83.2582
-49.0276 -82.3267
-48.696 -80.1727
-45.896 -91.154
-38.07 -91.1197
-44.4457 -88.5644
-47.6831 -92.2586
-39.3877 -86.467
-41.9597 -84.0824
-34.1466 -81.4904
-40.6227 -84.9415
-31.7299 -81.853
-27.6482 -81.7619
-27.743 -74.1298
-26.2839 -82.321
-25.5035 -83.2793
-23.8166 -77.5812
-19.3083 -80.2782
-10.6134 -81.7597
-13.5196 -80.0775
-15.3554 -80.0472
-18.1117 -78.2618
-10.5437 -80.0333
-4.23904 -81.1215
-11.0519 -76.9287
-6.81201 -84.3664
-3.47364 -84.767
-0.107497 -86.7535
-5.04472 -85.5501
0.982092 -81.415
5.10887 -86.942
0.939514 -83.3682
9.79695 -85.2241
5.26809 -85.3679
9.19767 -82.0346
20.0645 -85.4467
15.1567 -78.2766
20.1447 -88.9037
26.2442 -72.0326
22.7138 -79.6116
36.0202 -77.9717
28.2325 -84.798
29.6581 -81.6704
36.1931 -84.9819
26.9848 -77.4265
27.2629 -83.5231
37.746 -77.82
33.0204 -78.8932
49.6809 -81.3417
43.7371 -84.3433
44.0421 -87.9484
46.3858 -84.7786
48.9987 -87.6682
49.4837 -84.4507
55.3293 -79.5747
55.2356 -82.6642
58.5274 -88.9104
54.6483 -75.4311
62.9815 -85.685
71.7196 -89.8679
69.7485 -78.8139
71.0424 -87.7222
69.0076 -88.5976
67.8888 -78.3496
68.7854 -83.6696
79.6175 -77.1496
76.68 -77.2498
83.3479 -78.6569
79.7657 -88.2876
78.9799 -80.2891
77.1073 -75.6031
81.1228 -80.5858
81.8735 -92.0733
-98.0604 -75.2365
87.8651 -85.131
96.8886 -83.5927
-97.6596 -76.2098
-90.3547 -80.034
-90.3528 -87.9322
-96.9303 -82.2503
-89.4875 -88.6433
-89.9816 -82.7745
-89.3147 -81.4201
-86.3158 -83.3568
-84.4495 -80.7988
-75.8073 -76.355
-87.7691 -77.517
-84.8952 -77.5567
-79.2965 -85.8852
-70.6015 -83.01
-71.0239 -86.524
-71.8443 -78.0313
-73.3267 -87.1557
-71.3052 -90.9399
-61.2632 -78.3555
-64.5173 -82.995
-64.5004 -74.7013
-63.4634 -70.5757
-58.7298 -79.9587
-54.8148 -82.2556
-51.3799 -82.2808
-47.1618 -84.219
-50.7926 -95.9053
-44.7862 -79.3878
-43.1821 -82.6306
-48.32 -78.0116
-44.4914 -85.7263
-35.5999 -84.9495
-44.4097 -89.5896
-29.5306 -73.4452
-35.1233 -80.2916
-30.0452 -89.1132
-31.1048 -86.2546
-24.4633 -84.2401
-33.4027 -82.3454
-27.4798 -79.6511
-20.2086 -82.9971
-20.9665 -76.0285
-11.8761 -80.2327
-20.2709 -74.7726
-16.9692 -73.2039
-14.4979 -77.0267
-13.9567 -85.2553
-7.65757 -85.7137
-5.12213 -81.779
-12.9624 -77.6515
-11.1649 -77.9539
-4.14592 -82.1675
6.25823 -82.2671
4.75622 -74.3872
-1.71117 -83.3432
10.2472 -81.7089
10.3518 -78.0273
8.19774 -84.2662
14.9256 -85.0211
13.9325 -86.2311
14.1641 -82.9004
19.2477 -76.5218
21.62 -80.6282
26.149 -78.8632
20.3394 -78.0721
22.6437 -84.4917
27.5898 -75.1245
27.4187 -79.8208
28.1601 -82.3134
30.2713 -80.5307
31.7408 -77.9418
35.9403 -80.3441
43.0104 -85.629
45.1764 -84.0046
47.4672 -74.7319
46.5799 -80.97
50.8458 -76.4673
47.866 -82.4476
54.5077 -83.5576
54.5822 -76.7287
60.771 -79.9661
52.6946 -81.8619
59.6897 -79.9579
60.2183 -84.6809
60.7075 -81.9684
64.2986 -79.8305
67.889 -81.8796
71.0979 -85.2659
75.5267 -82.5799
65.3072 -83.3501
85.7101 -83.38
78.5794 -78.0276
83.9799 -73.3531
91.1515 -77.7893
84.6186 -79.9218
89.675 -82.992
89.9783 -81.1098
90.1667 -78.683
96.6855 -82.1134
93.4122 -80.8959
-96.3098 -83.6364
-97.9446 -79.7388
-95.1764 -83.0056
-94.5076 -79.2805
-88.9354 -83.9624
-96.443 -70.4151
-80.6101 -79.5628
-89.3364 -84.9076
-78.1427 -78.8772
-81.4662 -78.4126
-80.9781 -84.6926
-74.2981 -86.3496
-73.161 -82.3256
-77.0899 -80.4537
-75.0032 -81.893
-72.8816 -81.2825
-67.1575 -82.0465
-63.6959 -78.851
-64.2454 -84.3836
-58.8446 -73.6631
-65.7284 -74.4006
-59.8132 -77.4105
-54.1529 -71.2073
-62.5532 -80.545
-55.987 -75.4442
-51.4237 -77.2897
-44.2385 -81.7472
-49.5726 -84.1058
-40.8204 -77.6325
-43.4922 -75.0859
-46.8616 -82.5004
-38.9157 -80.3317
-37.4897 -80.8462
-37.75 -82.0655
-34.4309 -72.7987
-30.9455 -74.824
-29.9162 -74.5571
-28.9937 -75.6721
-21.7383 -80.724
-23.854 -79.9597
-21.9121 -82.996
-19.3004 -78.3168
-17.7433 -81.5278
-21.2926 -74.6306
-12.8266 -72.3277
-16.1542 -76.0965
-9.32409 -83.0934
-16.4905 -83.2138
-5.79427 -78.5741
-8.66403 -84.3788
-4.30224 -83.8795
-2.53778 -80.488
-3.25507 -82.9123
0.258172 -76.8825
3.88348 -77.5939
11.5456 -82.0109
4.45904 -83.8539
13.7146 -85.057
12.3139 -76.4487
17.7406 -81.7683
16.3466 -87.2688
21.9677 -77.1567
22.1909 -82.8132
24.6731 -82.5817
29.3402 -82.7392
27.6369 -74.0824
23.6691 -70.7818
26.1159 -75.9352
28.6568 -77.6251
42.7091 -81.6306
37.0225 -76.8984
34.5688 -78.2879
34.7409 -76.8541
46.4569 -77.0916
47.667 -76.4875
51.7183 -82.6723
48.7266 -75.8506
54.7369 -85.2984
55.8637 -68.979
53.0657 -71.9903
51.4754 -79.9753
60.2971 -78.9254
57.4562 -84.1777
59.5354 -82.2428
65.9249 -86.5103
65.5871 -81.4738
62.3258 -84.5642
67.0103 -82.5668
78.6559 -81.3163
80.8473 -85.8705
77.3683 -84.0415
86.4986 -82.1714
81.6903 -74.4524
81.8523 -73.3874
85.5383 -84.3794
85.7798 -78.8261
88.7854 -82.4564
96.7559 -74.0499
96.229 -80.2334
-98.1056 -83.2843
98.3248 -78.2527
98.5587 -81.24
-92.1511 -68.7338
-92.3291 -79.8743
-88.949 -79.4061
-97.8439 -72.2104
-94.0841 -83.2982
-84.2505 -70.225
-85.4186 -74.8647
-83.6148 -71.1524
-78.0482 -75.0129
-78.0987 -76.8869
-76.0618 -80.2388
-70.122 -81.1852
-64.5662 -81.3426
-69.4843 -78.9822
-66.8081 -75.8201
-65.0821 -85.1697
-66.7232 -79.6245
-68.09 -67.9615
-60.512 -74.0156
-62.8178 -73.6791
-59.3705 -75.2998
-52.0444 -84.4555
-55.8895 -85.3497
-46.3226 -75.1267
-48.693 -76.7958
-47.5775 -79.1203
-49.4789 -72.8647
-43.0629 -85.4554
-44.5247 -80.4185
-40.9246 -82.2522
-30.8607 -75.8823
-38.3075 -76.479
-36.5523 -75.166
-33.8675 -71.6083
-28.006 -78.5845
-32.6742 -72.4712
-27.9887 -76.0555
-21.585 -78.3333
-23.869 -82.1433
-16.3344 -78.7259
-27.6431 -73.0094
-19.1582 -74.7876
-18.9721 -70.5095
-15.65 -77.0379
-14.1692 -73.2683
-12.0465 -70.8109
-3.58502 -77.0522
-7.61909 -82.8514
-5.59842 -76.4895
2.87843 -79.2441
4.28731 -71.7151
2.94745 -70.277
13.0597 -79.596
9.77505 -76.6485
15.0157 -67.7634
10.4497 -75.3043
14.7881 -71.808
14.5004 -79.0901
18.8539 -77.9312
21.697 -73.419
21.8368 -74.9365
20.7449 -75.3185
21.7982 -78.6249
31.3836 -67.6583
29.0916 -71.3173
29.2148 -84.0537
28.0918 -76.4919
38.6534 -83.0817
41.9996 -79.9713
37.6079 -79.2184
41.5684 -77.2631
40.6491 -75.0028
41.6639 -75.2942
44.0247 -79.7812
45.7444 -80.1986
51.8935 -76.2581
57.5073 -75.4375
47.47 -79.6835
53.3839 -78.65
62.6846 -81.1245
58.0221 -79.4819
62.9642 -73.5676
67.9397 -73.3864
65.5355 -84.3667
60.3664 -83.3807
69.8876 -80.4631
72.1268 -66.7031
70.516 -82.4827
68.0124 -69.2624
75.4841 -78.1701
85.7455 -72.2898
86.5055 -74.3345
89.5743 -77.0495
90.7869 -74.9908
83.7346 -81.8787
90.4838 -84.0482
97.3166 -78.5133
90.6872 -72.1678
95.2708 -74.4784
89.8947 -71.0035
-91.0222 -76.6664
-86.4273 -85.9183
-92.9859 -77.9041
-85.9483 -80.1383
-87.4954 -74.7252
-93.8858 -74.2965
-93.1951 -73.3594
-81.5736 -73.6187
-76.9826 -79.3836
-69.4058 -77.9648
-72.8292 -70.4559
-74.1758 -80.9113
-70.9572 -79.106
-71.5886 -74.5624
-63.6316 -76.1309
-67.6232 -70.4779
-66.6197 -77.8347
-58.3573 -72.531
-67.3027 -73.3375
-60.2798 -76.2935
-49.7732 -74.9648
-55.6759 -84.0187
-57.6144 -81.4156
-49.6809 -80.9889
-48.2329 -72.4417
-45.7687 -78.2438
-37.5384 -75.371
-43.4259 -78.2537
-33.9393 -76.7545
-45.0487 -72.1863
-35.1816 -77.6664
-37.8336 -69.2939
-35.8209 -70.9357
-31.1225 -68.662
-31.144 -71.8106
-30.5012 -70.1017
-31.0773 -67.499
-25.2348 -71.8775
-27.1958 -80.8303
-26.4026 -73.1926
-21.7657 -79.5182
-18.3137 -72.7843
-16.7923 -69.8813
-21.8794 -69.4225
-8.79674 -74.3652
-7.08241 -81.8699
-8.92769 -75.449
5.51517 -66.6641
-1.73306 -79.4259
7.55572 -73.8338
0.826935 -80.3702
7.66226 -79.4168
9.83267 -73.1085
10.9133 -69.918
8.538 -76.5724
1.71853 -78.6706
16.6072 -71.4421
13.6326 -72.9838
17.6281 -79.6695
20.752 -74.2079
20.9795 -71.9108
18.2872 -70.9613
27.6772 -66.959
23.3352 -72.3596
23.9274 -73.4883
35.9495 -68.818
24.1232 -76.3117
40.5104 -77.9257
44.52 -72.3705
43.1369 -80.4942
47.7543 -80.915
38.7382 -80.9527
41.3462 -79.0619
40.8135 -80.252
46.3471 -74.4123
47.5027 -72.7879
53.8492 -70.6958
55.7698 -77.4636
58.5675 -74.4109
60.9302 -76.5707
62.0262 -80.2758
59.6504 -74.3134
66.1049 -77.4127
69.2536 -74.0005
64.4804 -81.9929
74.7249 -79.899
70.6066 -78.115
72.7366 -76.0977
74.0954 -76.9243
80.3607 -83.1541
84.8725 -77.7342
92.1838 -75.7019
88.7315 -80.3859
84.4359 -71.9778
93.6622 -74.1813
96.6494 -75.8507
92.984 -76.5328
-95.1449 -78.4454
95.5596 -76.7814
-93.9591 -66.9534
-98.2183 -68.3483
-96.8974 -74.7308
-97.992 -81.9438
-93.9302 -72.0552
-89.4723 -72.3978
-88.4632 -69.3674
-86.0211 -69.0453
-80.9856 -70.8119
-76.7402 -68.245
-78.2568 -84.2581
-76.7605 -70.6398
-76.0688 -85.1473
-69.7916 -76.5203
-67.8798 -80.0751
-74.4683 -66.1085
-76.7997 -72.3455
-66.5516 -83.8524
-58.5675 -68.7182
-55.5096 -77.1447
-53.8595 -76.7817
-55.9835 -79.4954
-63.5691 -82.6494
-49.8077 -79.5972
-52.0762 -74.0309
-41.6741 -79.0076
-39.364 -76.811
-42.8431 -77.2072
-40.4101 -74.6188
-38.3578 -70.5018
-36.9712 -76.4152
-36.4041 -73.5551
-38.1705 -68.023
-40.4533 -68.6948
-35.8006 -68.0086
-35.0776 -73.6257
-26.2097 -69.8542
-26.0456 -75.3954
-21.0968 -82.0143
-20.0598 -60.5396
-21.0064 -72.5554
-23.524 -69.4869
-22.8096 -71.1247
-13.8356 -68.204
-18.1309 -74.346
-9.92554 -75.3971
-12.0129 -75.0663
-2.69333 -76.1885
-6.75821 -77.3701
-0.783455 -82.1185
0.427067 -74.8358
0.0637321 -68.2386
6.09585 -71.3347
9.06628 -77.6827
13.0936 -69.2826
9.82871 -64.5654
8.69167 -80.3239
11.4917 -74.3778
16.1868 -77.7023
16.0542 -80.7629
21.4248 -68.655
17.2734 -76.8268
19.2329 -72.0355
26.113 -65.6837
27.0932 -71.4201
27.2228 -72.6892
31.709 -71.717
35.2066 -70.1584
34.453 -74.7941
39.6888 -73.9876
34.0479 -68.4502
34.8582 -71.8362
40.2766 -72.9356
52.2201 -73.1702
46.0391 -72.6728
47.1871 -70.6792
50.366 -68.8105
53.1554 -75.7117
54.5408 -71.7299
55.6403 -76.1692
56.4583 -70.0478
60.5393 -77.6278
61.3124 -73.2043
57.3724 -72.8686
69.5988 -76.5229
65.8794 -69.5428
71.3813 -64.6163
71.0612 -79.9179
73.6103 -79.1227
65.0638 -78.7365
78.3387 -73.0792
83.4551 -66.6009
85.7447 -73.4519
88.9391 -71.3237
83.5132 -63.8874
87.6981 -74.9589
95.2926 -82.4896
83.328 -70.4158
89.8486 -72.7101
87.4399 -70.045
-97.3165 -69.2444
-95.2938 -67.6839
-88.9023 -76.1113
-90.48 -72.3785
-96.2493 -73.3296
-87.2646 -70.1507
-82.2678 -76.7055
-86.5814 -67.5845
-82.247 -70.2574
-80.7383 -67.9068
-77.6068 -71.5405
-75.9813 -78.5342
-73.3636 -74.5274
-81.9485 -72.4883
-70.7359 -77.8616
-73.9879 -71.8492
-68.9103 -69.3953
-68.9405 -71.4927
-57.7013 -75.7515
-62.4861 -68.3687
-54.6372 -69.3008
-50.3272 -73.7144
-51.1283 -81.015
-51.103 -70.9398
-49.5514 -71.3189
-53.8036 -65.5839
-48.2604 -75.8065
-40.9641 -75.5919
-39.1491 -74.7599
-39.6659 -78.5997
-39.4782 -61.5038
-41.2818 -70.1571
-36.1725 -72.3494
-34.3332 -70.464
-27.7873 -70.191
-34.0022 -67.1766
-34.1406 -74.0949
-29.1573 -69.8897
-27.1336 -67.9002
-20.4924 -78.5599
-17.7069 -71.688
-22.0334 -67.6984
-18.1714 -69.0229
-16.9879 -63.1234
-16.704 -72.2361
-15.2197 -70.4213
-15.3212 -75.0505
3.36739 -83.9922
-4.49164 -78.6117
-2.5384 -74.2707
-1.74147 -71.1325
0.696825 -73.5637
7.59354 -81.4881
-1.17953 -66.6783
-1.67687 -60.5983
16.8266 -68.937
13.9198 -74.6952
19.2767 -66.3537
15.0509 -75.7613
10.3433 -66.6271
26.0303 -69.2241
24.5305 -69.2271
26.3542 -64.4754
16.371 -73.0813
37.1467 -72.4682
33.1956 -61.9561
29.4837 -72.8631
30.5425 -76.5007
41.1597 -66.2163
38.2371 -69.0805
38.5906 -71.2083
43.6693 -71.2032
42.0727 -73.0354
45.7487 -70.868
42.2614 -71.3009
53.1279 -69.7711
56.9051 -67.3866
51.6301 -68.5358
55.1272 -73.7272
60.0819 -71.4238
61.7871 -79.1014
63.8483 -66.6308
61.8647 -75.8833
62.3501 -70.3527
61.7363 -68.4671
67.5385 -79.8442
69.359 -65.9309
70.2573 -74.5564
63.7633 -70.6424
80.4573 -68.9691
84.4168 -74.6298
80.294 -70.3535
91.8746 -71.196
85.0752 -61.6733
87.6775 -73.0459
87.3068 -77.3434
89.5931 -68.5003
-98.9245 -69.9667
91.5188 -69.7936
91.8905 -73.5663
98.6607 -75.0358
-96.1922 -65.8724
-98.0444 -74.0872
-94.3259 -65.0939
-85.812 -71.2869
-89.2562 -75.1097
-80.5926 -75.409
-87.1763 -66.4978
-84.9518 -64.5783
-82.191 -65.3485
-78.1376 -67.5755
-76.9832 -75.2767
-74.3638 -68.4819
-70.2095 -65.379
-72.0972 -68.8637
-68.1076 -77.3773
-68.6795 -60.7078
-58.0473 -76.8452
-59.8036 -72.127
-59.7558 -65.5917
-57.7007 -70.5456
-56.0633 -72.9737
-63.1969 -77.5382
-49.2019 -69.8763
-54.5722 -63.8623
-48.8028 -68.8267
-44.0057 -71.3381
-43.6089 -67.2618
-44.5263 -76.9938
-42.2523 -66.7714
-40.7016 -73.6367
-39.8825 -75.8977
-35.4048 -64.0166
-28.2894 -69.2505
-29.0186 -67.7202
-22.5588 -65.3214
-30.675 -65.6639
-27.2899 -65.0825
-23.4729 -75.9855
-20.2892 -62.8741
-31.5681 -73.7613
-20.9293 -71.0701
-20.217 -70.3539
-18.9645 -67.9751
-15.7869 -67.4746
-11.5701 -68.5569
-12.7113 -67.6804
-1.53781 -72.8868
-7.8507 -77.2634
-6.66706 -74.8841
-5.21111 -73.2445
8.36 -69.0231
-1.52643 -74.9525
6.11131 -67.4999
6.33891 -79.4149
12.0263 -78.0919
9.17494 -67.3668
7.186 -71.2479
13.0091 -63.4715
19.8768 -69.9133
23.0424 -65.1125
20.5473 -67.0184
24.4561 -67.5957
28.9223 -66.4559
27.7974 -70.3074
23.1931 -68.9729
31.6605 -63.5144
39.8596 -66.9384
32.2948 -60.1203
38.0296 -74.518
42.4288 -78.6554
50.4406 -65.3754
40.7876 -71.1803
44.19 -65.9294
47.5708 -69.6501
50.9016 -69.6647
48.921 -65.5983
55.4107 -65.4177
57.4124 -77.2807
58.4072 -63.3667
56.7175 -65.7792
60.0606 -62.4862
61.3191 -71.9287
64.2279 -61.2934
67.8507 -71.2366
64.3215 -69.2136
76.5424 -74.5452
76.2935 -81.0325
76.6776 -73.1467
69.6887 -69.731
76.0826 -71.7303
91.3467 -76.3089
79.4981 -75.3648
85.3542 -66.3998
86.7431 -63.0068
94.1283 -70.3892
96.9437 -67.7017
98.196 -70.7492
96.1829 -71.5907
-98.7953 -71.7918
-92.5606 -65.2847
-92.7047 -71.5302
-96.118 -78.7452
-97.3998 -73.29
-83.8329 -75.4175
-93.9725 -62.2273
-91.7324 -63.2046
-89.3048 -70.4639
-83.6464 -65.9469
-75.5854 -70.4371
-73.691 -63.2647
-79.2788 -72.7937
-69.5662 -68.242
-69.4504 -61.6721
-73.2728 -69.1904
-66.8195 -63.3404
-67.901 -69.3756
-65.2875 -70.5437
-59.6587 -68.7362
-57.6254 -69.3609
-58.4279 -65.3333
-53.2305 -75.6015
-54.7629 -66.5969
-51.9148 -75.1561
-63.0818 -59.1918
-50.4104 -69.3637
-56.5238 -68.6324
-47.2108 -74.6236
-50.4052 -67.0891
-50.9195 -72.4339
-45.0107 -65.3077
-33.9098 -56.9748
-41.5008 -68.916
-40.8983 -65.6147
-27.2144 -60.5641
-36.1023 -60.2402
-33.7577 -68.4976
-26.691 -70.9326
-29.553 -71.8313
-21.1481 -60.5976
-26.2756 -71.8674
-9.21664 -65.1378
-22.8816 -66.4387
-13.8002 -65.9133
-15.2535 -69.0915
-7.83243 -69.8956
-8.90089 -72.014
-10.1682 -71.712
-10.3902 -68.1544
-13.1511 -70.3063
1.52988 -67.9843
3.64783 -74.6537
-3.48006 -70.761
-0.281131 -57.7515
9.02615 -66.3613
7.44325 -67.2414
5.47726 -61.7292
14.36 -61.8286
16.0364 -63.5437
8.6829 -70.9614
11.112 -71.3983
10.1242 -68.2686
16.4247 -64.5585
29.2193 -69.8096
28.9877 -68.1618
29.9107 -71.9043
37.7877 -66.8582
35.671 -60.856
35.4033 -62.8862
32.1078 -61.844
39.801 -69.711
41.4605 -72.0025
44.1113 -70.0405
37.703 -64.2022
46.8727 -68.0168
51.1925 -66.7132
50.0835 -71.6399
50.924 -63.1174
53.3785 -63.0057
61.275 -65.8238
59.9494 -68.4753
62.3894 -63.679
63.6984 -63.9943
67.5601 -62.4656
64.6748 -67.4523
74.4248 -63.2687
69.0449 -72.1034
81.6236 -72.2804
79.9767 -72.4703
82.826 -67.6879
78.6293 -68.4452
81.8654 -62.7092
80.9075 -65.4945
80.3523 -62.6165
89.9588 -66.0313
86.7834 -66.9031
90.9894 -68.9294
95.8219 -67.3014
94.4286 -72.6656
95.037 -66.6924
96.3346 -68.5383
-96.0961 -61.6443
-89.8051 -68.8482
-91.3802 -67.8942
-93.6246 -63.5137
-92.7851 -62.5002
-90.5187 -70.1029
-89.648 -66.0859
-77.9926 -63.5652
-75.4792 -66.1738
-74.5459 -74.099
-71.365 -65.0126
-71.733 -66.7852
-69.6618 -58.9815
-67.4069 -58.9502
-71.6696 -55.1712
-69.8269 -66.8441
-62.2057 -69.4501
-65.6815 -67.6559
-59.7697 -69.866
-63.8069 -60.3932
-57.8609 -73.4421
-50.5392 -62.2618
-53.5773 -70.2694
-45.6078 -69.3075