ITEM: TIMESTEP
15800
ITEM: NUMBER OF ATOMS
10000
ITEM: BOX BOUNDS pp pp pp
-5.7205700000000000e+01 5.7205700000000000e+01
-5.7205700000000000e+01 5.7205700000000000e+01
-1.1441100000000000e+01 1.1441100000000000e+01
ITEM: ATOMS x y
-53.8458 52.2905
-53.2116 51.3841
-53.7199 -54.3957
-52.2662 55.9144
-52.6935 -56.1303
-50.3219 -55.265
-47.8053 53.3835
-46.0885 -56.5046
-41.4675 55.8112
-42.2579 -54.5944
-37.7208 56.1663
-43.4443 -54.4422
-44.022 57.0956
-37.3095 -55.3335
-36.2171 -52.5446
-30.9133 -52.3858
-30.2832 -54.6348
-31.653 -56.6798
-29.9767 56.3061
-30.8497 55.0481
-27.6062 -54.9441
-27.4093 -57.1635
-28.5502 56.2601
-29.4762 55.3827
-25.4377 55.3859
-23.5995 53.4905
-24.8355 54.0571
-20.5037 52.708
-21.7132 -57.0364
-19.9995 -52.5535
-18.8392 -55.2149
-14.103 -56.6351
-17.4311 -55.9794
-11.2645 56.6363
-13.3803 -53.0925
-10.1249 -56.3944
-8.69867 -57.0824
-5.08767 -52.7628
-5.82332 -54.8809
-2.98988 -53.144
-7.93009 55.8981
-5.72522 -53.7643
-1.81599 -53.2729
-0.502098 -51.0476
0.84125 -53.3193
-3.08998 -54.5447
1.00288 55.982
6.94062 -54.8126
2.95856 55.0612
5.17195 -56.5584
5.20777 -54.2396
5.08037 56.7796
3.90883 -53.955
9.63918 -56.2729
6.07678 56.0663
14.9426 -55.6129
12.9436 54.4547
18.1167 56.5403
14.7175 -56.738
18.4112 -55.4098
21.6363 -56.8634
20.105 -54.1805
19.4273 -56.7482
19.0529 56.1985
23.2725 54.9547
23.4619 53.0116
25.3059 51.4955
26.195 53.2128
26.2115 54.2162
26.8533 55.7795
28.0732 54.0397
28.6011 53.1386
30.9013 49.5477
32.2306 -56.1084
32.619 56.2859
34.3113 -54.8926
34.1545 -51.7154
35.8182 -54.0165
35.4427 -57.1618
37.6745 54.8117
36.0759 56.4114
41.1652 53.5376
42.1211 57.0903
43.9406 56.4238
46.0606 56.8334
48.6212 -56.6769
45.2609 -54.3993
49.5193 54.397
47.2755 54.2953
49.2374 53.2028
51.5181 53.9529
51.0772 52.9873
52.0899 52.9419
54.9968 55.123
56.1438 54.6478
55.0604 54.014
-55.977 55.3885
56.3079 53.5313
-55.2668 52.3951
-57.1381 56.3428
-56.0537 53.5111
-52.3288 54.355
-51.7319 -56.7419
-54.0617 -56.3774
-51.3035 56.2814
-52.8785 -53.1909
-48.8648 -55.8041
-47.0084 -55.7758
-42.9394 -52.6457
-45.2685 -54.2522
-42.85 -50.6836
-39.3531 -56.352
-37.268 -53.9024
-36.0817 -51.438
-35.2358 -52.0537
-30.801 -53.6225
-31.3067 -54.5487
-29.2981 57.11
-28.2423 -56.0417
-29.2595 -51.7938
-26.9835 -55.7241
-26.847 54.7965
-27.89 55.2072
-26.1775 -56.3429
-26.8037 53.6331
-26.5373 52.4993
-22.2424 54.0286
-21.0384 54.5648
-20.5536 -56.9562
-17.2045 -56.9984
-15.9882 -53.8997
-21.0207 56.5442
-17.7461 -54.9925
-11.7309 -55.9583
-9.51036 -54.717
-11.4689 55.529
-6.57587 -53.2307
-7.42588 -56.3037
-3.86869 -53.9278
-6.93017 -54.2804
-3.9951 -54.9786
-5.41999 -56.645
-6.02069 -52.3342
-3.45743 -51.7433
-0.1368 -52.9415
0.695929 57.0437
-0.884823 -53.6898
4.23854 -54.9729
0.404097 -54.2113
1.57648 -56.0929
7.98936 -54.8975
9.36088 56.3287
10.3275 55.868
11.1825 -56.7903
12.786 -56.0851
13.4412 -57.0554
13.4875 55.5152
19.4258 -55.6551
17.3861 -53.0226
19.4227 -53.4415
20.3784 -56.2878
21.0977 -55.4675
18.0673 -56.5238
24.0164 53.9854
24.7213 50.6602
24.6591 55.6886
24.7973 53.3292
28.895 -55.4766
30.1012 55.3759
33.6325 -56.1691
30.7331 54.6131
31.534 56.8796
31.0353 -54.4118
32.5691 -53.2009
34.7237 -53.8356
34.3958 -52.8139
35.389 -53.0879
35.6991 -55.4848
36.3136 -52.6433
37.0433 56.0165
38.127 -53.0117
38.077 56.064
47.4043 -56.3564
43.1172 57.1671
41.8628 55.2023
43.3985 -55.213
48.1765 56.389
48.5864 -54.6108
49.6732 -52.7505
47.5855 -54.9266
49.2915 55.3672
50.1409 56.1896
52.9262 53.9231
50.98 55.6329
51.6995 -56.5535
57.1555 54.1186
53.5332 52.0602
-56.0012 56.399
-54.2539 -55.2471
-55.0263 55.8844
-55.1638 56.9905
-52.8291 -55.1438
-50.6978 -52.1014
-51.1049 -54.5784
-51.716 -55.703
-49.8836 -51.3064
-53.3061 56.0645
-48.0318 -56.3929
-47.9738 -55.3298
-47.2018 -54.1689
-43.8938 -56.2828
-40.832 -53.6084
-40.8708 -56.2613
-39.9357 -51.2314
-33.2859 -50.4358
-31.3704 -51.056
-31.0556 -49.5207
-28.8054 -54.7445
-28.2139 -51.5063
-29.9963 -52.8763
-28.6494 -52.8703
-27.2925 56.2473
-25.7031 53.0462
-27.1203 -54.0648
-23.5581 56.227
-25.8246 54.1686
-24.1203 57.1652
-25.142 57.1016
-20.9903 -53.0495
-17.4227 -51.39
-19.1296 -53.9708
-17.9177 -53.7396
-14.3969 -52.7403
-18.88 -52.9718
-10.32 -55.3926
-11.167 -56.7625
-7.28776 -55.2483
-4.99824 -55.481
-10.1836 -51.3025
-10.9249 -53.4733
-9.1373 -51.454
-2.44607 -55.3893
-6.63988 -51.3188
-5.02863 -50.5711
-1.86346 -46.554
3.10616 -56.5038
2.24503 -55.1809
2.39985 -49.623
0.767828 -55.3672
2.76651 -54.1497
7.83999 -52.6506
9.85751 54.7577
7.08278 57.0268
10.5385 -55.546
12.8303 56.3416
18.8903 -54.3181
17.8647 -53.9306
13.7485 -54.5055
16.3143 -54.3103
17.9862 -52.0425
16.1633 -55.312
20.7329 57.1389
25.8834 -57.1104
28.618 54.9509
25.8803 55.1986
25.4524 52.5327
29.2648 56.0537
31.7651 54.5316
27.3394 54.7104
30.9433 -56.5125
31.8819 55.5665
30.1114 -54.7953
33.1141 -55.1972
31.0232 -55.5171
30.0257 -51.1527
33.3686 -52.555
33.1745 -54.1329
33.072 -51.4933
32.0943 -51.964
37.3812 -55.2318
37.245 -52.1794
37.8197 -54.1859
44.0977 -56.8956
42.1446 -56.1297
43.2335 -56.2532
45.1335 -56.7337
44.3621 -55.7438
47.4493 -53.6469
45.9868 -55.4453
50.5798 -52.3354
48.5875 -55.6802
49.46 56.9187
52.2377 55.8435
54.9388 56.728
52.9932 -55.5293
56.141 55.7826
-54.0701 55.3706
-56.1941 -56.8529
-56.2426 -55.5871
-55.0612 -56.1264
-54.2458 56.5212
-52.5817 56.9781
-52.3847 -54.1462
-51.5809 -53.5598
-49.6517 -52.4077
-49.3212 -49.0772
-50.1558 -54.1981
-47.9395 -52.7127
-50.1907 -56.3097
-43.5898 -53.4431
-39.7658 57.0119
-41.09 -55.1826
-40.2372 -52.2171
-38.7287 -51.4588
-32.4721 -49.5211
-38.161 -54.6624
-34.4535 -50.076
-30.4004 -51.4543
-28.5996 -49.2608
-29.5452 -53.867
-30.5231 -50.4021
-25.9133 -50.8953
-28.188 -53.9113
-24.7236 56.1764
-25.1497 -56.1992
-26.3481 56.8111
-22.5614 56.7188
-18.5683 -51.9997
-17.7113 -52.599
-18.678 -50.7331
-14.7012 -53.8557
-15.1314 -54.7517
-16.925 -54.4013
-13.7356 -54.3875
-9.82037 -52.6393
-7.93169 -54.4853
-4.03849 -52.8344
-10.9769 -52.1116
-8.41974 -53.2171
-6.34119 -50.3573
-9.49498 -50.5105
-8.02496 -51.7111
-7.3767 -50.4083
-5.50182 -51.4492
-1.40068 -51.56
-0.0692777 -49.1246
3.57986 -49.721
1.5565 -48.4597
1.20799 -52.2901
3.78939 -48.7153
4.98856 -48.7066
4.76636 -53.214
7.15131 -56.1233
8.03355 -53.7192
8.53128 -55.9893
14.2275 56.5902
15.7193 -56.8392
13.925 -55.9222
13.0161 -52.5426
16.5124 -52.0236
21.2137 -53.6112
21.5883 -54.5979
24.8994 56.7449
25.6072 -55.7171
25.0866 54.5443
27.9147 55.8452
27.2994 56.7528
26.3917 -55.0515
28.5375 56.8204
29.1409 -53.0259
29.0196 -56.5584
30.1341 -53.3758
28.274 -54.1126
30.2294 -52.347
32.081 -50.7443
37.3366 -51.1608
35.2466 -51.7048
36.7871 -53.6399
36.7093 -56.0009
38.264 -52.0081
37.3835 -50.0913
38.7089 57.0336
40.1987 -55.491
41.0561 -56.5347
45.0218 56.6021
42.0359 -54.6711
41.1971 -55.3757
46.3298 -51.6093
50.6365 -54.7783
46.8975 -52.7321
48.4774 -52.7686
51.1431 -49.0707
49.5866 -56.122
50.6046 54.5696
51.1889 56.8533
56.1296 -56.2874
55.735 52.2543
-57.1674 55.2862
56.5305 -53.8274
-55.8752 -54.3728
-52.3283 -51.1524
-53.9679 -53.3489
-52.0331 -50.1669
-50.0501 -50.2433
-48.6822 -51.9827
-48.3434 -54.1485
-46.7377 -52.4815
-46.2823 -53.7905
-42.2694 -53.4607
-46.4411 -54.8312
-41.2028 -52.5911
-45.5023 -55.5434
-41.9315 -50.2642
-37.9437 -48.5963
-40.1758 -54.4734
-42.0743 -56.4249
-34.4806 -51.1548
-29.9812 -48.939
-30.267 -46.4459
-29.0988 -48.3805
-28.4179 -50.4067
-28.1645 -47.8333
-28.4569 -46.5303
-29.4733 -50.7994
-27.3517 -52.8083
-25.9827 -54.0498
-26.0034 -55.1499
-19.4404 -56.5735
-23.9964 -56.105
-16.9251 -53.2538
-14.3744 -51.0753
-15.8135 -52.8336
-13.112 -50.3392
-12.7087 -54.1694
-9.42167 -53.6112
-11.71 -54.3358
-11.9163 -53.2709
-11.6859 -50.9536
-10.0402 -49.6496
-8.26438 -48.4608
-10.8551 -50.2747
-8.23858 -45.9037
-6.48601 -49.221
-5.51356 -49.5753
-2.3816 -51.1648
-1.95303 -54.3776
1.19575 -49.4075
-1.10733 -52.5168
-0.589889 -47.76
4.6047 -49.6827
1.96677 -53.1334
1.70364 -54.1209
5.84194 -52.2163
2.04287 -51.2476
11.3226 -53.5955
10.1892 -54.57
11.7976 -55.8314
13.6549 -53.3228
15.0992 -54.5948
12.8288 -55.0163
15.4659 -52.3585
19.4543 -52.2344
22.6672 56.9501
22.2931 -56.0907
26.6785 -56.0692
25.0622 -53.3457
23.4894 -54.4824
23.3009 -51.376
22.6449 -55.1132
29.3186 -54.0135
31.9722 -54.9924
30.0801 -55.8931
33.1791 -49.1666
30.7296 -49.6666
31.4156 -53.0395
31.0874 -50.6468
33.1261 -50.3284
39.112 -53.4672
40.6524 -52.0621
38.7631 -55.0103
42.3273 -52.0889
37.5732 57.1727
40.0691 -56.851
39.086 -56.3528
41.0544 -54.2673
46.7033 -54.403
47.7197 -49.7357
47.9385 -51.651
49.6671 -51.7506
49.4483 -55.1246
48.9938 -49.8107
49.0718 -53.6024
51.2908 -53.1545
50.316 -56.9655
50.5576 -55.8893
53.0444 -56.6114
55.0458 -56.545
56.3463 56.7687
-51.1835 -50.9354
57.2239 -57.0243
-54.9114 -54.1292
-53.7937 -52.3513
-53.4338 -51.1742
-48.2094 -50.8445
-50.4249 -53.1376
-49.3422 -53.4595
-45.6057 -51.5861
-44.8354 -50.7224
-45.5452 -48.7383
-43.3874 -48.7338
-44.4032 -52.0393
-43.7263 -51.1767
-42.4512 -49.0968
-40.5901 -50.1327
-39.1683 -52.568
-39.0298 -54.0672
-32.3895 -50.8622
-38.3757 -53.1691
-29.2105 -47.2758
-27.0695 -50.9568
-26.9729 -49.9421
-24.7159 -47.6449
-25.9303 -49.8941
-26.323 -52.9334
-25.712 -52.0893
-21.531 -54.0028
-26.4171 55.7382
-23.0285 -55.7344
-22.8778 -56.7452
-20.2207 -55.8924
-19.5384 -51.6766
-12.5316 -52.2946
-19.9246 -49.2803
-13.1341 -49.1015
-14.154 -50.1087
-7.60607 -52.6471
-12.1125 -48.6985
-8.44569 -50.5106
-12.4934 -47.5313
-7.75274 -44.2018
-7.78263 -47.2801
-7.27533 -48.2572
-8.73007 -49.407
-6.7348 -47.1984
-4.47709 -51.9353
-1.69196 -50.4189
-0.794207 -49.9448
-1.10902 -48.8374
1.25289 -50.6345
0.195792 -46.9545
5.99788 -49.1531
3.1756 -53.0683
11.8328 -54.6973
6.83036 -52.7054
9.19309 -55.2465
4.55753 -51.7423
12.4116 -53.4599
16.3461 -53.1196
15.3128 -49.6248
17.1714 -51.2617
22.2308 -52.9974
17.5036 -49.6686
23.4404 -56.0228
23.6575 -57.0349
24.9163 -56.5456
23.4071 -52.6664
26.6391 -51.8564
26.1684 -53.7623
24.5083 -54.5147
27.5762 -56.6178
27.576 -55.231
29.0962 -51.7036
25.5068 -54.5758
28.0857 -48.8657
31.0281 -51.639
34.4271 -50.7549
39.4537 -48.5706
39.7072 -52.4368
40.2291 -51.1205
38.2876 -50.8659
41.3772 -52.81
39.7319 -54.5109
44.1484 -54.1553
40.443 -53.3937
42.3686 -53.2843
42.998 -54.084
46.0181 -53.6145
48.6372 -50.9092
49.8116 -50.7199
47.5123 -50.7209
46.4459 -44.6921
50.8599 -50.1172
50.0591 -53.7735
50.8902 -51.3684
51.725 -54.4675
53.1351 -53.1402
54.9092 -55.5403
57.1372 -55.6735
-52.8032 -52.1277
-56.8022 -54.7543
-54.7713 -52.5465
-55.1749 -49.8599
-49.0011 -50.2108
-45.9639 -50.5557
-45.738 -52.8924
-44.7401 -53.3825
-46.5068 -49.3142
-42.0821 -52.1166
-46.3359 -48.1147
-44.4805 -48.5138
-43.5438 -49.8215
-38.8039 -49.2726
-38.3723 -50.3829
-37.7678 -51.1806
-39.3818 -50.1738
-37.9631 -52.2508
-30.3061 -44.7689
-29.4211 -45.8962
-29.4795 -49.7889
-27.5931 -48.9799
-26.5681 -49.0331
-24.4016 -50.3442
-26.7991 -51.9652
-24.7147 -52.4334
-23.8394 -55.104
-24.896 -53.4966
-24.8293 -54.5405
-23.1212 -52.5124
-22.5719 -54.0051
-19.6709 -50.5545
-15.4133 -51.5761
-16.5142 -50.9571
-13.4856 -51.9806
-16.4325 -51.9638
-17.0373 -48.642
-12.6882 -51.2978
-10.6285 -46.7144
-12.5111 -55.1463
-3.53339 -44.6285
-9.078 -46.4881
-7.48191 -49.4022
-5.64964 -45.1525
-4.28495 -49.7077
-3.28055 -49.7681
-2.89483 -45.4079
-2.04574 -48.1334
0.189543 -50.334
0.470814 -48.2832
2.85916 -50.4966
2.88704 -51.9201
5.26306 -47.2388
4.4998 -50.727
8.86312 -48.7471
8.9551 -52.3263
9.29583 -54.0097
14.5259 -52.6947
10.6482 -51.2639
15.0597 -53.5632
12.1739 -51.1411
19.0395 -50.1865
17.8782 -48.7337
16.2677 -49.8909
22.4329 -54.0525
21.4795 -51.3415
22.3323 -51.8579
23.437 -50.3391
24.0054 -53.5158
24.4125 -55.6817
25.9874 -52.731
28.1677 -50.5432
29.6959 -49.0695
27.7793 -47.6638
34.4794 -48.2641
28.0278 -52.8819
31.7495 -49.449
35.8503 -50.8853
37.2745 -49.0433
39.1954 -51.3702
40.9828 -48.2495
40.9777 -47.0304
38.553 -49.7295
39.9877 -47.6547
39.6305 -50.2323
44.0078 -51.2071
44.8236 -53.3473
42.9178 -51.0836
46.2695 -49.0369
46.3245 -50.4833
45.2227 -51.7145
47.4611 -48.7313
52.5104 -49.4764
45.1933 -48.8147
53.0785 -52.0583
54.1787 -53.7929
54.0295 -56.1348
53.198 -54.5032
52.0418 -52.484
54.0529 -55.0073
-56.7701 -53.7421
-54.1441 -49.6099
-52.1617 -47.78
-51.4909 -48.9944
-50.4481 -49.1209
-47.2398 -46.2014
-47.1245 -50.3746
-45.0525 -47.6328
-44.9263 -49.5873
-44.5188 -46.5185
-42.559 -48.1017
-41.9057 -47.1902
-40.1885 -47.7393
-39.2311 -48.2036
-34.0594 -48.0188
-36.01 -49.5402
-35.6277 -50.4844
-33.9 -49.1746
-33.0914 -48.2949
-27.5686 -47.0284
-27.0926 -48.1265
-25.7009 -48.527
-27.0066 -44.9383
-23.5666 -49.382
-23.1983 -50.5922
-24.9465 -51.3553
-23.8057 -51.7873
-22.2203 -55.0782
-23.8544 -46.7481
-23.6806 -53.7712
-19.8079 -54.9583
-22.0087 -56.0928
-20.9943 -54.9395
-17.429 -50.3539
-15.9848 -48.783
-19.5634 -48.2353
-17.8792 -49.4734
-11.0831 -49.0637
-10.3687 -47.9619
-11.9613 -49.7023
-6.10772 -48.2118
-9.40447 -45.4943
-6.63439 -44.6336
-4.81388 -48.4942
-3.65485 -50.7214
-2.07486 -49.1776
-0.915501 -44.8114
-3.24201 -46.4759
2.01705 -45.9973
1.34683 -47.2836
2.77801 -48.4011
4.44461 -47.8263
5.70294 -50.3069
5.43668 -51.2859
8.5615 -51.3853
7.32088 -49.7748
7.70818 -50.7826
12.3739 -50.1264
9.09413 -50.5321
11.9556 -52.5204
18.5848 -52.8322
20.2111 -50.2314
21.226 -52.3122
20.272 -52.8476
22.4035 -50.4091
21.7452 -49.1534
24.3153 -51.9913
23.9558 -49.1718
27.0116 -52.8217
24.3732 -47.061
26.0833 -50.9816
28.7401 -49.7157
30.2653 -48.0386
35.2452 -48.9771
29.7156 -50.1068
34.1083 -49.6302
36.153 -49.6152
37.0835 -47.9562
36.3682 -46.5004
38.3862 -47.4474
42.1283 -48.4346
39.5546 -44.5046
38.4627 -48.7327
40.2586 -49.2645
43.6772 -47.1628
42.1796 -50.2859
41.7385 -51.2021
40.9315 -50.2575
44.2746 -52.4192
43.3637 -51.9894
47.411 -46.0236
51.1047 -45.38
51.0989 -46.4907
46.5039 -47.9038
48.549 -48.6448
51.4968 -55.5729
55.2091 -50.3042
55.1173 -54.4346
-54.4959 -50.6232
56.1632 -54.8625
-55.776 -51.8043
-53.1361 -50.2099
-50.2715 -42.1644
-49.3741 -48.0391
-47.3062 -48.6511
-50.5784 -43.2977
-46.8588 -45.2489
-47.4038 -51.6412
-47.2791 -47.439
-45.9415 -44.8163
-40.5433 -43.4234
-43.8956 -47.6417
-41.2035 -49.2976
-40.189 -49.0733
-37.1566 -49.4366
-31.2773 -47.768
-41.154 -51.0512
-30.2698 -47.4652
-31.2503 -46.7458
-32.6017 -47.1582
-28.993 -44.6595
-31.7089 -44.6289
-33.7316 -43.4244
-24.4163 -48.7771
-26.3413 -46.5239
-22.7114 -48.6025
-22.7756 -51.5496
-20.4895 -53.964
-20.8365 -51.5742
-22.2404 -49.5895
-20.9173 -50.2314
-18.9026 -49.7331
-16.5475 -49.6544
-15.3037 -50.5089
-19.7002 -47.2252
-17.801 -47.8775
-13.6013 -48.2234
-15.132 -48.231
-13.3975 -46.9393
-11.372 -47.4643
-4.51624 -44.3931
-5.20613 -46.4166
-3.39505 -48.6978
-3.49727 -43.59
-2.58658 -44.1471
-1.93399 -45.0511
-3.04966 -47.6327
3.37782 -46.2215
0.147912 -45.1561
-0.659192 -45.9054
4.67874 -45.335
2.72275 -46.9997
5.35673 -46.2313
8.54833 -45.625
6.53889 -51.2865
12.8119 -49.2176
10.0572 -50.2484
10.2203 -53.446
9.56367 -51.521
13.6234 -48.3002
15.6476 -50.7428
15.5206 -48.5083
21.3265 -50.2294
20.1787 -51.3436
21.9236 -48.1632
25.2951 -50.2534
23.6882 -48.1859
27.4547 -49.656
24.2651 -50.9442
23.5873 -46.2986
25.2741 -51.6797
26.353 -49.2501
26.6301 -47.5906
29.0304 -44.7088
32.2089 -48.4808
31.0913 -48.5939
36.1873 -48.474
35.2648 -50.0613
34.6606 -43.6992
37.597 -46.7133
39.6709 -46.6787
38.4461 -43.7484
43.6308 -45.8442
41.6761 -49.4319
43.178 -48.1216
43.4369 -53.1501
42.769 -49.3453
44.4182 -43.8948
45.6556 -52.6343
50.1103 -45.4449
45.4793 -49.8037
50.7675 -42.7364
50.047 -49.2013
53.9012 -51.1885
52.2267 -53.5973
-55.9464 -50.5149
-56.7391 -51.259
56.0429 -52.8578
57.0194 -52.4491
-57.0206 -49.9815
-54.1086 -48.1601
-53.6847 -46.6129
-49.2402 -44.0063
-50.3611 -47.3187
-48.3595 -47.1135
-48.0936 -49.6604
-48.2287 -48.277
-46.1567 -46.9492
-45.537 -45.9636
-43.0788 -46.8598
-41.1795 -45.6879
-40.5399 -46.4603
-38.5315 -45.7126
-36.6501 -50.3608
-34.5074 -46.2973
-35.8789 -48.2211
-33.6232 -47.1087
-31.1508 -45.7163
-34.7616 -43.2453
-31.9229 -48.5677
-33.5886 -42.1351
-29.7512 -43.8977
-25.6172 -44.3423
-25.8954 -47.4946
-27.3883 -46.0375
-25.9981 -45.4444
-23.7638 -47.9972
-21.7805 -51.9693
-21.9417 -47.0263
-20.5118 -45.7908
-21.8349 -50.7675
-20.7506 -47.1089
-22.2204 -52.9738
-18.6855 -47.2529
-17.7517 -46.79
-18.5165 -48.6548
-14.1643 -46.2565
-9.66786 -48.6768
-12.1708 -46.5951
-9.24467 -47.6786
-7.42674 -45.2641
-3.93187 -45.6107
-1.46447 -43.9882
-5.26919 -47.5673
-2.24025 -41.6356
2.66582 -45.2394
-4.0978 -47.7179
1.48866 -44.7981
3.66619 -45.0744
7.71645 -46.9954
4.32092 -46.728
7.81192 -48.8388
10.0249 -48.0303
12.5096 -46.2181
8.58724 -47.476
8.3781 -49.7295
11.2199 -49.1787
12.4059 -48.2417
13.3281 -51.3335
10.5174 -52.381
14.1322 -49.1717
18.7779 -51.2726
19.567 -43.5959
20.8796 -48.1006
21.6841 -45.8496
22.7708 -48.8348
20.2069 -45.2998
22.4974 -43.9672
26.3786 -46.4441
25.6434 -47.3052
25.4927 -43.8014
25.0584 -49.1955
27.2723 -54.1695
22.7575 -45.1482
33.5752 -47.8489
35.8623 -47.4779
33.3832 -45.7543
34.3902 -46.1516
31.7182 -46.6477
37.5351 -44.2977
40.3817 -45.7517
35.4376 -42.3081
39.306 -45.5248
41.5532 -46.1078
41.9792 -47.3794
44.3498 -48.227
44.8182 -50.624
43.4668 -50.2232
44.5044 -49.5754
47.1812 -47.1491
49.0552 -46.0609
53.4904 -48.756
52.962 -50.8041
51.8396 -50.3675
54.071 -52.4402
55.009 -53.0063
54.9471 -51.9537
-56.0854 -52.8138
-56.0605 -47.9661
-51.0788 -48.051
-55.1165 -45.3321
-50.0137 -44.832
-49.0659 -45.1935
-49.3829 -46.9682
-48.0936 -43.121
-46.0371 -43.6185
-46.4429 -42.6659
-43.3186 -45.8068
-47.8646 -45.2321
-41.192 -42.4222
-41.731 -43.5799
-41.4378 -48.1571
-39.5483 -45.7615
-36.4782 -47.2998
-35.1114 -48.9865
-32.9493 -44.3443
-33.1048 -46.0772
-32.711 -42.9889
-31.707 -43.5469
-28.2586 -45.5493
-33.9831 -45.3619
-28.2592 -42.5822
-28.5672 -43.5427
-24.9078 -46.2333
-23.2039 -44.5573
-22.8344 -46.35
-22.9482 -40.9437
-24.5638 -45.1935
-21.2977 -49.2378
-19.6315 -45.1691
-19.5721 -46.2282
-18.3132 -45.8965
-15.029 -45.7702
-16.6476 -46.1223
-15.6563 -46.6422
-14.5195 -49.1289
-15.7078 -45.0131
-12.8875 -45.6522
-11.3234 -44.5892
-6.18788 -46.0937
-5.57636 -43.9562
-6.84574 -43.6684
-1.1854 -41.4553
-4.08791 -42.76
-0.151667 -41.1727
-3.20724 -42.1807
0.572842 -44.2436
-0.389118 -43.915
0.878717 -46.2077
5.21038 -43.2499
6.37443 -47.0398
9.67775 -46.8137
9.65824 -45.8159
11.2261 -44.3736
10.0271 -49.0366
11.0799 -50.225
11.1395 -48.1774
14.2911 -51.6452
16.4641 -46.5431
13.6575 -50.0949
14.6605 -50.463
16.744 -48.5607
21.5786 -47.0792
20.6249 -42.9087
22.5878 -46.3979
22.867 -47.4595
24.6146 -44.3202
23.3362 -41.2187
21.1561 -41.8974
22.592 -42.0828
25.329 -46.1704
24.7195 -47.9912
27.4054 -46.575
27.1377 -45.1751
27.1127 -50.8364
28.0219 -44.6304
32.6263 -47.3494
31.0284 -45.6193
30.5386 -46.8327
37.9237 -45.6941
38.4847 -44.8476
36.6541 -43.7427
41.5782 -44.6079
42.6728 -46.5675
42.4866 -45.3345
45.4373 -45.7627
45.0042 -46.7288
46.4308 -45.7691
48.802 -43.7906
45.3918 -47.6844
52.4633 -46.2221
49.7934 -44.2545
48.2176 -46.993
49.5973 -48.243
54.739 -48.1637
53.7853 -50.0263
56.5847 -50.8412
-55.8259 -49.0505
54.5607 -49.2394
-53.2541 -48.8441
-50.1828 -46.2537
-53.2258 -43.2706
-48.5362 -41.7647
-48.2367 -44.1033
-47.1172 -43.6745
-44.7938 -43.8059
-45.9343 -41.6382
-44.2469 -45.4106
-42.2373 -46.0975
-41.6049 -44.6237
-39.0059 -46.8082
-38.8728 -44.7628
-37.9505 -47.0149
-37.2725 -45.0403
-35.9664 -46.2931
-35.479 -47.313
-30.1668 -41.9423
-33.3029 -40.2109
-32.467 -41.9765
-27.2528 -42.3253
-30.5449 -43.0659
-27.9373 -44.365
-21.7979 -41.6475
-24.6164 -44.1046
-24.4671 -37.1306
-23.625 -45.7338
-19.886 -44.1458
-19.9702 -42.9062
-21.7662 -48.2185
-20.6694 -48.2731
-20.9233 -43.3792
-17.9716 -44.8433
-17.5212 -43.9509
-16.7009 -40.4996
-12.3623 -44.7547
-16.8273 -47.4332
-16.722 -45.0242
-14.783 -47.2794
-10.3755 -45.734
-8.62408 -44.7887
-7.65733 -42.5185
-6.94332 -41.7301
-4.2464 -40.6944
-6.54257 -42.6484
-2.11599 -40.5753
-2.40211 -42.7895
1.76562 -41.6043
4.23715 -44.1678
2.74805 -43.8944
7.02327 -46.247
7.12015 -47.8342
6.2974 -44.5291
9.32314 -43.4777
10.6426 -46.0818
10.7905 -47.1303
11.472 -45.342
13.9318 -47.3069
11.8846 -47.3172
16.3964 -47.6054
18.5961 -47.9093
14.6645 -47.9803
18.3431 -46.8149
20.3281 -48.9458
19.7824 -48.0375
20.4955 -46.9193
18.5544 -43.6944
24.0416 -45.2774
23.9102 -40.1265
23.2802 -42.8926
23.6814 -43.9564
24.7417 -43.0556
25.8421 -45.1487
25.7092 -48.3765
26.3833 -41.9702
28.5373 -47.0136
27.7191 -43.3167
29.8217 -45.846
35.5569 -45.8683
31.4792 -44.6118
33.6203 -46.7972
35.994 -44.8703
36.5058 -42.5223
44.6642 -41.8465
40.5979 -44.2725
45.9936 -46.821
43.2955 -44.6958
45.7742 -43.7518
47.5014 -44.1509
48.1069 -45.0424
49.177 -45.0637
50.8641 -41.2456
52.1343 -47.3078
53.6508 -47.7544
52.6144 -48.1795
54.366 -46.6845
50.952 -47.9438
55.3844 -46.9848
55.9455 -51.8386
-48.5368 -46.0827
-51.264 -46.8031
-53.021 -45.6911
-50.87 -45.483
-52.6059 -42.3739
-52.1131 -43.3823
-46.8626 -41.2752
-49.6201 -41.3924
-44.9053 -41.7524
-45.8462 -39.898
-42.846 -43.8389
-47.6342 -42.2436
-42.5638 -44.9405
-42.1142 -41.6257
-36.2384 -42.9983
-36.0652 -41.9198
-40.2538 -44.7533
-35.1395 -45.4286
-31.5497 -42.5496
-25.1133 -39.4708
-28.3463 -39.0781
-29.2242 -39.5885
-24.8801 -43.0676
-29.2515 -42.3248
-26.3817 -43.6213
-22.1494 -44.8602
-24.3331 -40.1124
-23.7299 -42.0488
-25.1853 -40.735
-20.7651 -39.6784
-22.8618 -47.5079
-20.7479 -40.7417
-18.7122 -42.3611
-21.6232 -45.8402
-18.9211 -44.3726
-16.4646 -43.8744
-12.7776 -42.1744
-9.1991 -41.4739
-10.2456 -44.7339
-9.68385 -42.8048
-8.68402 -42.337
-8.71347 -43.342
-9.92406 -39.0942
-7.73391 -40.034
-5.78739 -41.6576
-4.18928 -41.7669
-3.11138 -41.136
0.463794 -43.1784
-1.26299 -42.4766
0.271139 -40.0538
0.926141 -42.2768
2.95725 -42.7792
9.02482 -44.6897
8.37143 -43.9321
10.0534 -44.6715
11.5753 -42.8522
10.6574 -41.9308
13.4915 -42.3166
12.9155 -41.344
12.9166 -47.2417
14.5848 -46.4623
15.4165 -47.2907
19.5035 -46.823
15.4376 -45.8875
15.5558 -44.4883
16.6933 -44.3678
19.073 -48.8694
20.3239 -44.2436
21.195 -43.7564
25.0003 -40.1746
24.4012 -41.0687
23.9609 -42.0231
25.0381 -42.0523
27.0592 -40.1447
31.6283 -36.0382
27.0887 -41.2355
28.1337 -45.7616
29.1783 -48.1607
31.5269 -47.6315
34.6256 -41.6573
34.695 -47.2725
34.9682 -44.9444
33.8868 -44.8031
40.6989 -43.2078
39.4811 -43.5089
41.5984 -42.6205
44.4189 -45.0227
45.0433 -43.0496
45.3687 -44.662
48.6945 -41.5739
46.9905 -42.8175
49.8089 -41.864
52.6704 -43.0097
50.3562 -47.1508
53.3455 -46.6837
55.8739 -47.9102
55.193 -44.0712
-56.0827 -45.6386
-56.8481 -48.9177
56.5241 -48.7903
56.2442 -49.7918
-52.0117 -45.816
-53.2621 -47.5804
-51.1647 -44.4705
-54.2324 -43.3812
-47.8575 -39.3425
-50.8473 -41.1752
-50.3456 -39.164
-47.9922 -40.8057
-45.3737 -42.8139
-44.2046 -40.9762
-43.8782 -44.4101
-35.3932 -44.0711
-39.1777 -43.7197
-36.9852 -46.0727
-36.2773 -45.2834
-37.0366 -48.1441
-36.8132 -43.9451
-33.9088 -41.0457
-32.1147 -40.8598
-31.3062 -41.5219
-34.4555 -39.9907
-28.5886 -40.3577
-28.2656 -41.3649
-27.4372 -43.3324
-22.6912 -42.3216
-24.8666 -38.4312
-23.8194 -38.2634
-22.9502 -39.8432
-24.7058 -36.0971
-22.0505 -37.1597
-22.4693 -43.8693
-21.1322 -44.7184
-18.7711 -43.3537
-17.5644 -42.5822
-15.4666 -43.0316
-14.6241 -44.858
-11.5082 -45.7583
-8.03493 -41.223
-10.7921 -43.6215
-9.96805 -40.3894
-13.8909 -43.3664
-6.68925 -40.6509
-11.0408 -40.8684
-4.81969 -38.6438
-5.26762 -42.7248
-4.8745 -39.6845
-1.71963 -39.3807
2.3569 -40.7795
1.96703 -39.8343
0.883354 -41.0665
2.8164 -41.6871
6.25732 -45.5251
5.19064 -44.4536
7.17564 -42.8841
13.4889 -43.3265
12.4606 -42.3935
9.51711 -42.0878
14.6534 -42.4095
13.4468 -45.7915
12.3025 -44.7604
17.5197 -47.7043
15.1929 -43.4096
17.8062 -44.7558
17.5133 -45.8228
19.0936 -45.8338
21.1606 -44.9447
22.0014 -42.9596
21.8227 -39.8066
22.4215 -36.4592
26.6113 -38.738
24.7237 -39.0024
25.697 -39.3854
26.1031 -40.9729
28.9605 -39.0504
29.5391 -46.8023
25.7743 -42.7563
28.5823 -42.7784
28.6327 -43.7903
35.6853 -43.3486
37.8073 -40.8021
33.4654 -43.086
36.8639 -45.6224
42.1067 -43.6403
40.7509 -41.9573
42.6992 -42.4513
43.3498 -43.5594
45.6426 -41.2266
47.2631 -40.2203
46.669 -41.4484
49.2465 -47.0626
48.41 -42.7897
49.4477 -39.7719
48.454 -40.4709
52.155 -41.081
52.8895 -44.0543
54.0001 -45.5067
55.05 -45.4533
56.6744 -46.5995
-54.7147 -46.5217
-55.0403 -47.7343
-52.5685 -46.7374
-54.0237 -45.6549
-53.2624 -44.5193
-50.0277 -40.2391
-47.6288 -38.2495
-49.2009 -42.503
-47.7722 -36.9651
-43.1225 -41.7121
-43.8961 -43.3469
-39.5519 -40.8064
-40.0151 -42.2428
-38.1735 -43.899
-38.5878 -42.7036
-37.4438 -41.9604
-37.9243 -39.7335
-38.9007 -41.62
-34.2704 -44.3632
-38.3611 -40.7172
-37.4682 -43.0823
-31.2764 -39.8458
-30.4833 -40.8745
-27.1909 -41.3357
-29.5089 -41.1188
-25.334 -41.79
-26.6519 -37.8495
-26.4062 -33.5736
-23.5855 -36.4692
-24.1236 -41.127
-23.155 -37.46
-21.7922 -40.4568
-17.7466 -40.7344
-18.4977 -41.3952
-17.3816 -39.615
-16.4496 -39.23
-15.2762 -40.748
-13.5923 -44.3585
-12.0513 -43.0347
-11.2256 -42.3881
-12.7119 -43.8207
-9.45236 -44.0397
-13.8333 -42.3417
-10.8995 -39.5137
-6.36963 -39.6751
-8.74535 -40.4982
-5.34561 -40.6644
-0.110484 -42.36
1.94023 -38.785
3.34892 -37.6634
1.46962 -43.792
1.94046 -42.7213
6.25019 -43.2917
6.41256 -42.2219
7.25787 -43.9686
8.26962 -42.6344
7.56885 -45.2044
8.17937 -39.4641
6.49576 -38.8603
14.2089 -39.208
12.483 -43.7426
14.3795 -44.2206
14.3998 -45.2681
16.2337 -43.4521
13.3155 -44.6096
17.2423 -41.404
16.5539 -45.3838
19.0995 -44.7746
17.4512 -43.2461
22.1271 -41.1209
22.0547 -37.3807
24.2212 -35.8178
23.6211 -36.6106
24.5193 -37.8255
25.4509 -38.218
29.666 -38.2555
26.7583 -44.1937
27.7495 -42.1256
30.0798 -44.5375
36.6669 -40.4218
36.5137 -41.5049
37.1934 -37.9599
35.7882 -39.5182
34.4028 -42.6772
38.6233 -42.0266
38.9757 -41.062
40.3097 -37.8105
41.1926 -40.9432
46.0237 -42.4603
47.4611 -36.9414
45.7971 -40.1298
48.3566 -39.4522
49.891 -43.2422
49.4277 -40.8243
51.6899 -42.1076
53.6838 -43.1794
52.8251 -45.2785
51.5693 -43.4121
56.1038 -45.4112
-57.14 -45.2823
55.5499 -48.9641
-56.9901 -44.2022
-54.8403 -44.3583
-55.9199 -44.5315
-53.6253 -42.3258
-55.2033 -43.0028
-53.1607 -41.4303
-51.2739 -42.3764
-51.3751 -40.0461
-44.0024 -42.2701
-42.6002 -42.8082
-39.1812 -38.9751
-40.2704 -37.7577
-40.252 -36.7209
-39.2466 -36.6647
-36.0602 -38.7988
-38.1075 -37.4829
-36.9736 -38.2919
-38.2249 -38.5138
-34.8788 -41.9962
-37.3804 -40.9522
-35.2359 -41.0327
-26.4665 -39.9973
-30.3709 -39.4311
-23.4504 -43.0866
-26.1727 -38.9286
-27.1791 -35.5802
-25.5936 -37.6803
-25.8504 -35.6484
-24.9365 -32.7405
-20.9174 -35.4639
-21.7015 -39.2901
-20.1921 -36.1521
-20.7945 -38.457
-19.5667 -41.8265
-17.0243 -41.4574
-15.9411 -41.9255
-16.4419 -42.7805
-14.8554 -43.8449
-13.416 -36.3711
-14.2275 -38.745
-14.8871 -41.9954
-7.1159 -38.9316
-6.06852 -38.6664
-4.26085 -37.2141
-2.6949 -38.7543
-3.87976 -39.0322
-3.24164 -39.9441
-0.499959 -39.1539
1.11143 -37.597
2.94667 -36.7293
4.80793 -41.7319
3.98114 -42.3908
5.79604 -40.2398
6.85499 -39.8783
8.61234 -41.4799
9.99115 -41.1511
10.4608 -43.1408
11.4052 -39.3627
10.9897 -40.9761
13.5462 -40.4826
15.6839 -42.5249
15.2245 -40.422
14.8344 -36.8122
16.2779 -40.774
19.0507 -41.5197
18.1656 -42.0338
20.0096 -41.9718
19.2073 -42.5866
20.651 -39.6447
22.7623 -39.4714
27.2484 -35.5657
24.8102 -36.7985
26.7511 -37.703
27.6161 -38.6332
30.0756 -37.2682
28.0818 -39.6548
29.9115 -41.1493
28.9995 -41.6189
32.984 -44.2582
35.1681 -40.7883
33.2528 -41.3016
37.4984 -42.4981
37.1266 -39.533
39.2608 -39.8936
40.023 -40.5428
41.905 -41.6722
43.9288 -42.5828
44.8445 -40.4563
47.4349 -39.0868
48.9222 -38.5827
47.8275 -38.0725
47.7004 -41.7351
50.1115 -38.9469
52.9722 -42.0466
51.9875 -44.6674
50.8063 -44.1295
54.1352 -44.2371
-56.2592 -43.4891
-55.9147 -42.2887
-57.049 -47.5857
-56.6025 -46.56
-55.6625 -46.8994
-56.9007 -41.6428
-54.1008 -41.0418
-55.0431 -40.7218
-52.1814 -38.194
-48.9205 -40.3996
-46.8708 -39.6161
-46.6682 -36.4033
-45.1228 -39.0137
-42.5238 -40.7055
-40.4988 -40.3443
-40.3496 -38.962
-39.144 -37.9414
-40.9397 -35.634
-38.6773 -35.5216
-38.029 -36.3694
-36.6642 -39.5857
-37.5958 -34.4745
-35.0312 -39.0672
-36.313 -40.5959
-30.9849 -37.5683
-27.6387 -39.9065
-27.7455 -37.9852
-27.4249 -36.8729
-28.3365 -35.9037
-26.3591 -34.7906
-25.1319 -33.9475
-24.9621 -34.9646
-23.7779 -39.27
-20.6495 -41.7288
-19.9603 -37.9015
-21.8022 -42.8656
-19.1159 -40.4802
-18.9154 -39.3721
-14.2123 -39.9185
-13.1264 -41.2433
-14.2272 -41.1177
-13.2803 -37.7543
-11.8578 -39.1879
-10.4737 -41.7164
-8.71393 -39.2241
-6.35387 -36.7076
-5.72043 -37.7145
-8.27668 -34.8796
-5.12076 -36.7062
-0.750357 -40.1861
-1.40637 -37.0887
4.8232 -40.4546
3.7448 -40.9817
7.60025 -41.9124
5.48602 -39.2844
6.88755 -41.1562
7.29004 -37.5931
9.24503 -37.0805
9.11162 -40.3951
8.08018 -40.5766
13.3802 -38.5483
12.3332 -38.8542
12.5092 -37.7625
14.1777 -41.4112
11.7436 -41.667
15.8401 -38.2964
21.2185 -40.6622
17.3539 -40.1058
16.6927 -42.3647
19.9526 -40.9494
19.2774 -40.0854
21.1757 -38.772
23.5683 -38.196
22.4922 -38.4294
24.049 -34.8285
25.8256 -37.2481
30.7644 -42.0636
29.7951 -39.8405
28.0227 -40.8687
30.6889 -43.3779
31.7884 -43.339
32.659 -42.4179
30.8089 -39.9996
38.1848 -37.0451
38.1223 -39.3581
39.7661 -42.4595
41.4744 -39.9499
42.1618 -37.8511
40.2698 -39.1041
42.8918 -39.5125
43.727 -41.1737
46.2293 -39.0393
48.3128 -36.3967
45.0298 -37.1659
46.7472 -37.8038
49.0805 -35.6066
50.5209 -40.0694
51.1954 -39.2476
55.2728 -42.2379
54.8232 -43.1321
-54.3355 -37.4632
56.1971 -44.3055
-54.9097 -41.9573
-57.1205 -42.8478
-52.4705 -39.3145
55.8855 -43.2111
-55.9884 -41.0632
-52.424 -40.4554
-51.1529 -35.4553
-51.9323 -41.458
-50.1329 -38.0001
-48.6491 -37.5241
-42.2211 -39.7098
-41.5286 -40.6565
-42.9371 -38.7773
-41.1293 -38.2621
-42.1115 -36.011
-41.3924 -37.0288
-34.6209 -37.2097
-40.1494 -34.6505
-39.7007 -33.6484
-38.4133 -33.2473
-35.5167 -39.9602
-35.73 -37.7575
-30.5423 -36.1008
-31.3161 -38.5798
-32.6773 -36.3987
-26.1893 -42.4988
-26.42 -36.4803
-28.4308 -36.9922
-27.08 -32.3471
-23.9329 -32.0725
-22.5619 -38.66
-22.4747 -36.1168
-19.2501 -36.678