ITEM: TIMESTEP
1900
ITEM: NUMBER OF ATOMS
10000
ITEM: BOX BOUNDS pp pp pp
-9.9000000000000000e+01 9.9000000000000000e+01
-9.9000000000000000e+01 9.9000000000000000e+01
-1.9800000000000001e+01 1.9800000000000001e+01
ITEM: ATOMS x y
-98.3557 98.711
-97.2494 -98.825
-94.29 -98.4317
-92.9487 -98.4232
-91.2036 -98.8432
-88.943 98.5995
-86.8169 98.6325
-84.156 98.1939
-84.3204 -98.4819
-81.8458 -98.5112
-78.0326 -98.4424
-76.7844 98.6128
-75.8106 -98.9583
-73.291 98.5067
-71.0106 98.4947
-68.486 98.4838
-67.2131 -98.8878
-64.4418 -98.1
-63.9552 -98.9966
-61.27 98.8682
-59.9071 98.8735
-58.5885 98.6586
-54.9521 -98.1509
-53.2652 -98.9208
-51.6071 -98.344
-50.7296 98.9414
-48.1409 -98.7352
-45.5184 98.9333
-42.8299 98.6185
-41.1674 -98.0434
-40.1778 98.5093
-37.4896 98.148
-36.3291 -98.8767
-33.1683 -98.6707
-31.7509 98.8679
-30.8011 98.5255
-27.191 -98.6934
-25.1368 98.96
-23.2845 -98.8086
-21.5082 -98.4866
-19.7629 -98.3911
-17.6106 98.8269
-15.916 -98.388
-14.1576 -98.9949
-12.2921 98.2517
-10.5333 -98.9448
-8.9414 98.8732
-6.82986 -98.2987
-2.96194 -98.9122
-1.54328 98.369
0.431821 98.3588
1.87511 98.7604
4.4917 -98.7072
6.20691 -98.8431
7.44235 98.28
8.95585 -98.8435
11.5526 -98.8223
13.4137 98.9433
15.9852 -98.6795
17.163 98.4119
19.7605 -98.7756
22.4618 98.6987
23.8382 98.9489
25.7624 98.277
27.9653 -98.7812
29.9901 -98.5199
32.1003 98.1478
33.6167 98.9924
35.7558 -98.9609
38.031 97.9881
40.0586 98.4627
40.8746 -98.627
43.7855 98.7284
44.5447 97.6158
47.5402 -98.443
49.3836 98.9847
52.2532 -98.2899
53.1791 98.7173
55.1249 98.8097
57.4661 98.7013
59.3703 -98.8873
61.6493 98.5037
63.3063 -97.8777
64.7563 -98.3981
67.6117 98.5172
70.499 -98.6304
71.7397 98.9728
73.0273 98.5787
75.338 98.6014
78.152 -98.5516
79.0725 98.7294
80.3725 -97.7592
82.9313 98.2089
84.4661 -98.9571
87.252 98.8813
88.5043 -98.9495
90.8221 98.0827
93.2933 98.9627
94.3182 98.7056
96.3784 -98.9363
98.731 -97.0024
-96.1912 -97.2216
-94.7485 -97.2657
-92.8544 -96.6647
-90.7157 -97.1201
-88.6722 -97.1447
-86.6481 -97.1636
-85.0131 -97.2293
-83.2718 -98.4095
-81.4364 -96.621
-79.2828 -97.0218
-76.2082 -96.8986
-75.2392 -97.3272
-73.7415 -96.9718
-71.7373 -96.4897
-69.4735 -97.1367
-67.6682 -97.1143
-65.5947 -97.3551
-63.2024 -97.3883
-61.7398 -97.8374
-59.0297 -97.8567
-57.259 -96.5318
-55.4278 -96.5014
-53.9784 -97.4027
-52.1445 -96.5408
-50.1127 -96.9198
-46.9262 -97.6239
-45.9227 -97.2921
-43.0173 -97.12
-41.9447 -96.6497
-40.0254 -97.5843
-37.5847 -97.5717
-35.2015 -96.8634
-33.5139 -96.7148
-30.8486 -97.1372
-29.8487 -97.1212
-27.096 -96.4619
-25.2076 -97.0393
-23.7127 -96.9784
-22.0671 -96.6559
-19.5627 -96.6012
-17.6871 -96.5964
-16.1003 -96.8825
-13.8211 -97.5521
-11.3035 -96.6899
-9.22449 -97.3177
-8.21226 -97.1517
-5.68578 -96.4787
-4.09037 -96.3544
-2.21434 -97.9395
-0.298859 -96.9241
2.21649 -97.6098
4.27663 -97.5354
6.55473 -96.7642
7.67137 -96.9664
10.035 -96.7386
12.1536 -97.3441
14.1739 -97.1374
16.1197 -96.2414
17.3185 -97.6618
19.6771 -96.9683
22.3336 -97.186
23.9601 -96.5447
25.5767 -97.4258
28.2815 -97.6968
29.9052 -96.9492
31.319 -97.3389
33.4598 -97.1763
35.3562 -97.5016
38.0869 -97.8581
39.5779 -97.0754
42.0224 -97.9316
43.5042 -97.2139
44.7116 -97.7471
48.444 -97.1382
49.6119 -96.3135
51.7415 -96.5837
52.8463 -96.6153
54.9369 -96.8735
57.4829 -97.8518
59.0995 -97.9276
61.3543 -96.8125
63.5628 -96.517
64.865 -97.0522
67.9924 -96.7634
69.1576 -96.642
70.4995 -96.8097
74.0501 -97.1695
75.3754 -97.2649
76.9714 -97.2499
79.6125 -97.1039
81.4778 -96.7819
83.429 -97.8092
84.382 -95.9812
86.0671 -96.7699
88.902 -97.9233
89.9716 -97.1884
93.8531 -96.7854
95.6669 -96.523
97.0553 -97.137
-98.7589 -95.0618
-97.1551 -95.3721
-95.1287 -95.0712
-92.9049 -95.4844
-91.2489 -94.9679
-89.797 -94.6159
-88.7791 -94.2604
-85.2574 -94.2131
-83.6845 -95.3514
-81.6999 -95.341
-79.1798 -95.1959
-78.2222 -94.7869
-73.9752 -94.9826
-73.0975 -96.1786
-71.2914 -95.5929
-70.0428 -94.3307
-67.2283 -94.4766
-65.641 -95.0111
-63.5091 -95.9554
-61.644 -95.2733
-59.1791 -95.6789
-56.9057 -95.056
-55.2068 -95.4378
-54.2322 -94.7676
-51.3937 -94.8324
-48.4682 -95.5998
-47.6239 -95.0392
-46.4265 -96.0991
-43.4812 -95.2014
-42.0462 -95.4343
-40.1853 -95.4422
-36.5485 -96.3863
-35.6031 -95.0561
-33.172 -93.8834
-31.4419 -95.5572
-29.8531 -94.4322
-27.4153 -95.2179
-25.7209 -95.0519
-24.381 -94.8605
-21.8848 -95.1836
-19.7762 -94.8586
-18.5108 -94.0713
-16.6419 -94.5612
-14.042 -95.5457
-11.7423 -95.555
-9.71685 -94.5389
-8.37219 -95.3397
-5.55436 -95.4872
-3.37266 -95.6031
-2.57594 -94.5404
0.551974 -93.6896
2.20049 -95.9771
4.92424 -95.5409
6.3599 -95.2972
7.34574 -94.2563
10.6191 -94.287
12.9652 -95.8029
13.9401 -95.3137
14.9165 -95.0691
18.5256 -94.6988
19.3788 -94.0841
22.3407 -94.9914
23.9173 -95.159
25.4696 -95.3685
27.3845 -95.2203
29.6586 -94.4447
31.6627 -94.0051
34.0562 -94.7235
35.8584 -95.6162
37.086 -95.0958
39.62 -94.4284
41.8864 -95.4604
43.6287 -95.0677
45.2526 -95.2349
47.4489 -95.7335
50.0023 -94.4978
52.0674 -95.4671
53.6224 -94.9837
55.0653 -95.4582
57.5811 -95.4598
59.9279 -95.7447
61.6922 -95.5715
63.5695 -95.378
65.2513 -95.108
67.784 -95.1927
69.7391 -95.478
70.8295 -95.0187
73.6512 -95.1882
75.4339 -95.5991
77.3176 -94.9263
79.2567 -95.1717
81.4042 -95.5174
83.5184 -94.2493
85.7928 -95.3936
86.896 -95.2894
88.7399 -94.1477
91.7217 -94.2937
92.731 -95.7225
95.9302 -95.2567
96.8047 -94.6863
-98.66 -92.7932
-97.2273 -92.887
-95.2046 -92.7869
-93.6843 -93.793
-90.3559 -93.4074
-88.7758 -92.8486
-86.6924 -94.2608
-86.4236 -92.9181
-83.1628 -93.0585
-81.4117 -93.0323
-79.5468 -93.0755
-77.4793 -93.9451
-75.82 -92.3584
-73.7176 -92.807
-71.8316 -92.7128
-69.759 -92.8922
-67.8936 -92.8458
-64.7858 -92.6115
-62.8033 -93.2708
-61.5538 -93.0252
-60.478 -92.2502
-57.828 -93.0928
-54.6691 -93.2676
-53.4304 -92.5471
-52.416 -94.0784
-49.8206 -93.3127
-48.2562 -93.1874
-44.8201 -93.5486
-43.7441 -93.3353
-41.7196 -92.4288
-39.8884 -92.8872
-37.5511 -93.2043
-36.2328 -92.706
-34.4349 -93.5096
-31.0541 -93.1259
-30.017 -92.4138
-27.1156 -93.1762
-25.54 -93.4024
-23.5379 -92.6292
-21.2393 -93.3955
-19.8792 -93.7816
-18.0982 -93.022
-15.6693 -93.1892
-13.2812 -93.1213
-11.1967 -92.3051
-9.98271 -93.4938
-8.0699 -93.1884
-5.64937 -93.8802
-2.94661 -92.6641
-2.03358 -93.0856
0.231173 -92.6277
1.49531 -92.3781
4.33143 -93.6711
5.40785 -92.548
8.28343 -93.3655
9.54184 -92.7613
11.9286 -93.23
14.4321 -93.1054
15.4023 -93.3937
17.9318 -92.6843
20.4562 -92.8054
21.9251 -92.3035
23.9306 -93.4374
26.4411 -92.5944
27.678 -92.5547
29.4786 -92.2013
31.4701 -92.9252
33.273 -92.4043
34.9945 -92.9049
37.762 -93.2758
40.0201 -91.9379
41.9906 -92.8266
42.9832 -92.6532
45.0276 -93.7684
47.623 -93.0886
48.8187 -93.6734
51.5127 -92.3519
53.5527 -91.9684
55.3937 -93.2456
56.9276 -92.2633
59.7398 -92.7453
60.4783 -93.5735
63.3366 -92.9554
64.6385 -92.9043
68.0364 -92.8975
69.108 -93.0349
71.9718 -93.2992
72.6709 -92.0857
74.7808 -92.2787
76.5672 -92.6792
79.2048 -92.9396
81.5029 -93.3587
83.0344 -91.9499
85.4214 -93.1508
87.1334 -92.845
90.1707 -92.9787
91.0788 -93.4283
91.9638 -92.4396
94.8724 -93.9698
96.7011 -93.0715
98.5807 -91.4934
-96.5948 -91.6111
-95.038 -90.9076
-93.1954 -91.4572
-90.8303 -90.9407
-88.0206 -91.7367
-86.8586 -90.1936
-85.6126 -91.4592
-82.3311 -90.8862
-80.6081 -91.788
-79.5199 -90.9749
-77.5871 -91.2613
-76.604 -91.5166
-73.93 -90.8567
-71.2858 -90.3274
-69.4966 -91.3643
-66.1918 -90.9392
-64.4798 -90.8103
-63.8098 -91.9307
-61.1379 -90.8439
-59.8766 -90.4291
-57.7517 -91.0241
-55.879 -91.0333
-53.7463 -91.3604
-51.8621 -90.3288
-49.5044 -90.2751
-47.2168 -91.0883
-45.4308 -91.2432
-44.1658 -91.705
-41.5738 -90.9187
-39.2754 -90.5512
-38.2062 -90.5389
-35.459 -90.2971
-33.4809 -91.3818
-32.3131 -90.9272
-28.8817 -91.6634
-27.7667 -91.1258
-25.6507 -91.1789
-23.5932 -90.8857
-22.3186 -91.8079
-20.4448 -90.9409
-17.9723 -90.5286
-15.5942 -91.3673
-14.455 -91.2588
-12.6053 -91.7799
-10.449 -90.5717
-7.76642 -91.2245
-6.4832 -90.6448
-4.49812 -91.6861
-1.87754 -90.6282
0.382063 -91.4679
2.04791 -91.4381
2.90836 -90.6865
6.36008 -90.3714
8.31827 -91.6624
9.92962 -91.7412
11.7634 -90.8447
14.1265 -90.024
15.585 -91.5004
17.8149 -91.6267
19.9661 -91.7737
22.1497 -90.6903
24.2451 -91.5667
26.2917 -91.5533
27.2539 -90.4227
30.0655 -90.8007
32.0854 -91.0336
33.6874 -90.696
35.3112 -90.4658
37.6629 -90.3008
39.6764 -90.933
40.6787 -90.9749
43.9251 -90.9517
45.3504 -90.1093
47.3484 -91.9723
49.2668 -90.937
51.6476 -91.1314
53.8639 -90.9698
56.0777 -90.3532
57.1242 -90.9954
59.6731 -90.9419
61.821 -90.879
64.5136 -91.3567
65.8546 -91.2601
67.1739 -91.9435
69.3056 -91.12
71.7824 -91.1625
73.4978 -91.4137
74.7022 -90.8977
77.4296 -90.7484
79.9241 -91.289
81.0754 -91.7751
82.1956 -91.281
84.5422 -90.2971
86.6442 -91.1162
89.5794 -91.3222
89.9689 -90.2564
93.3183 -91.2644
94.5611 -90.9388
97.1354 -90.851
-98.8186 -89.8449
-96.899 -89.3237
-94.7989 -89.825
-93.6037 -88.8936
-90.2453 -88.6107
-89.0517 -89.5776
-86.1879 -88.3627
-85.4571 -89.3134
-83.7558 -89.4148
-81.2843 -90.0123
-78.6535 -88.9338
-77.326 -89.264
-75.2645 -89.1299
-73.5764 -89.6112
-71.6903 -88.621
-68.6274 -88.6103
-67.885 -89.4278
-64.6128 -88.4515
-63.1759 -89.8581
-61.458 -88.9239
-59.4477 -88.8261
-57.5616 -88.8783
-54.7239 -88.889
-53.7681 -89.568
-51.3685 -89.2041
-49.6578 -89.1764
-47.473 -89.186
-46.5769 -88.7225
-44.0844 -88.9951
-42.0171 -88.8632
-40.9137 -89.2735
-37.307 -89.0643
-35.457 -88.9325
-34.2309 -88.4056
-31.533 -89.0738
-30.0846 -89.107
-27.5867 -89.2246
-25.4421 -88.5208
-24.5634 -89.3013
-21.952 -89.5221
-19.4769 -90.4778
-16.8148 -89.5322
-15.7323 -89.0073
-13.7345 -89.3976
-11.4285 -89.13
-10.0526 -89.6189
-7.67706 -88.3868
-5.433 -89.2347
-3.33124 -89.4134
-1.53 -89.1886
0.763739 -90.277
1.73911 -89.7016
3.7891 -89.4019
6.34293 -88.6063
8.13405 -89.3387
9.1908 -89.375
11.1809 -89.7825
14.5044 -89.0412
15.8964 -89.7374
17.7081 -89.0783
19.6067 -89.2511
21.3038 -89.6442
23.9444 -89.4481
25.3389 -88.9443
27.2919 -89.1886
29.8656 -88.3575
31.5042 -90.0522
33.1436 -88.2259
34.4204 -88.8171
37.4997 -88.8552
39.2472 -88.576
41.5572 -88.7693
43.8977 -88.716
46.0094 -88.0745
47.6749 -89.0434
49.4778 -88.7308
52.4749 -88.9111
53.5727 -89.3389
56.3042 -88.7996
57.1024 -89.4143
59.605 -89.3907
60.8201 -89.1385
64.0428 -89.4249
65.4204 -89.5451
66.9665 -89.2285
69.2833 -88.059
70.7849 -88.6412
72.4781 -89.6311
75.1622 -87.5966
77.216 -89.3255
78.7985 -88.9164
81.1513 -88.768
82.1631 -89.1118
83.6931 -88.8216
86.5169 -89.6859
89.9808 -88.9034
91.1179 -89.4829
93.0001 -88.8431
95.235 -88.7746
96.4858 -89.0648
98.8499 -87.5281
-97.2635 -87.5129
-95.4223 -86.5249
-93.2398 -87.3386
-91.0909 -86.9597
-89.4621 -87.1371
-86.7435 -87.2829
-85.6135 -87.4758
-83.1683 -87.5816
-80.2497 -87.9556
-78.6866 -87.8955
-77.1292 -87.4182
-75.0116 -87.0484
-72.8664 -87.8723
-71.3113 -87.5009
-69.1202 -87.6993
-66.8685 -86.7435
-65.5622 -87.3106
-63.0683 -87.2867
-61.2994 -87.4697
-58.9116 -87.7147
-57.247 -86.7702
-54.5319 -86.9722
-53.3467 -86.8334
-52.0674 -87.3322
-50.1517 -86.9353
-47.2766 -86.9499
-46.0224 -87.6484
-44.5461 -87.3033
-41.2836 -86.8181
-38.6544 -86.3783
-37.2892 -86.9208
-36.3872 -87.9647
-34.0462 -86.8626
-31.0756 -86.8573
-29.4386 -87.6364
-27.1087 -87.3654
-26.2353 -86.8003
-22.7292 -86.633
-21.3083 -87.1399
-20.2153 -87.331
-18.4608 -87.38
-16.2966 -86.481
-13.7228 -88.1282
-11.6775 -87.192
-10.2134 -87.6659
-7.67159 -87.2439
-5.92448 -87.5237
-4.59931 -86.6581
-1.99605 -87.1891
-0.0661234 -86.8492
2.60102 -86.5413
5.32296 -87.0854
6.38287 -87.0756
7.85389 -86.1711
10.1891 -87.6044
12.0013 -87.7244
14.059 -86.8074
15.9494 -86.8812
17.9091 -87.9377
19.895 -87.1264
22.0174 -86.46
23.8308 -87.108
25.8291 -86.193
26.9495 -87.05
29.4964 -87.3385
31.0608 -87.1467
33.2968 -87.1271
35.6131 -86.355
36.6902 -87.2346
39.6784 -87.6445
41.9735 -87.4735
43.0713 -86.9746
45.4013 -86.8323
48.2012 -87.9885
49.0122 -87.2097
52.0935 -86.3929
53.8449 -86.5369
56.0542 -87.3578
57.4239 -87.1945
58.863 -87.0457
61.2469 -87.6713
63.6327 -86.7346
65.3095 -87.9355
66.8626 -86.8357
69.4085 -86.6006
71.0129 -86.554
73.5569 -86.8027
76.1855 -87.3425
77.488 -86.6257
80.2366 -87.0748
81.2649 -87.1952
83.0139 -86.9444
84.8828 -86.5904
86.4739 -87.7361
89.6202 -87.3097
91.1352 -86.3971
93.0314 -87.2749
95.6827 -86.6232
97.1798 -87.0214
98.1546 -84.6108
-97.276 -85.4252
-95.7922 -84.9316
-93.3792 -85.5103
-90.3938 -86.1111
-89.2235 -85.7459
-87.5974 -84.958
-85.2147 -84.9972
-82.9965 -84.8151
-80.8208 -85.2312
-79.5015 -85.6649
-76.7373 -85.4625
-75.3861 -85.7292
-72.5982 -85.7059
-70.8109 -85.3287
-69.7945 -84.8886
-67.7106 -85.9669
-65.7173 -84.9055
-63.467 -85.1716
-61.3295 -85.8399
-59.2246 -85.2104
-57.6096 -85.7152
-54.6974 -84.8414
-52.3637 -85.4763
-51.0923 -84.956
-50.7076 -86.0388
-47.1754 -85.3259
-45.8512 -85.0036
-43.8595 -84.6184
-41.015 -85.3815
-39.736 -85.3381
-37.7743 -85.2818
-35.183 -84.5852
-33.4768 -85.2993
-32.6712 -84.4744
-28.9178 -84.9269
-27.9525 -84.3442
-25.304 -84.6115
-24.0641 -84.8087
-21.9514 -85.1752
-19.7463 -84.6791
-18.2112 -86.1912
-16.0263 -85.176
-14.1626 -84.7511
-12.3384 -84.9086
-10.0413 -85.1082
-7.91983 -85.7559
-5.25169 -85.5239
-4.12912 -85.3464
-2.00978 -85.0772
0.424279 -85.3223
1.71563 -85.3229
4.60705 -86.2605
5.7664 -85.3172
6.95258 -85.1764
10.0561 -85.7781
12.4123 -85.9512
13.6729 -85.7678
15.3937 -85.96
17.7777 -85.4804
20.5263 -85.3961
22.1227 -84.7818
23.5614 -84.6934
25.6823 -85.1871
27.7689 -85.6103
29.4942 -86.234
32.7016 -86.025
34.1764 -85.5646
36.051 -84.196
37.2087 -85.6848
39.8651 -84.2995
41.44 -84.7897
43.2287 -85.002
45.4772 -84.7364
47.2782 -85.1032
49.2859 -85.0729
51.7559 -84.7218
53.1437 -85.385
55.2885 -85.0283
56.7451 -84.9526
60.1483 -85.005
61.5438 -84.8307
63.7045 -85.5252
65.2682 -85.3948
67.2549 -85.5246
69.0765 -85.257
70.8342 -85.1424
72.4897 -85.2694
75.2334 -85.1313
77.2795 -85.3409
79.1864 -85.3911
80.9894 -84.9936
83.3885 -84.7407
84.658 -85.5193
86.6805 -85.0579
89.3747 -85.1353
90.6548 -84.7097
92.8497 -85.3864
94.7594 -85.1188
95.9204 -85.3836
-98.8114 -83.67
-96.7524 -82.8701
-95.6332 -82.633
-92.2828 -82.7975
-91.2516 -83.5039
-90.1874 -83.6376
-86.87 -83.598
-84.6152 -82.8195
-82.9623 -83.414
-80.5053 -83.7702
-80.1857 -82.2613
-77.4393 -82.1364
-76.6308 -83.103
-72.4816 -83.6737
-71.2841 -83.2213
-69.2881 -83.628
-67.2927 -83.1864
-65.9785 -83.619
-63.9094 -83.4513
-61.8068 -83.6038
-60.1755 -83.277
-57.3201 -82.4701
-55.1579 -82.9447
-53.9416 -83.1791
-51.4574 -83.1289
-49.3974 -83.8281
-46.8074 -83.098
-45.4441 -83.2056
-43.4557 -82.8181
-42.0471 -83.8916
-40.7289 -83.4429
-37.4926 -82.9153
-35.7432 -82.9516
-33.4656 -83.8521
-31.4712 -83.3183
-30.214 -83.4459
-26.9938 -82.9782
-25.7603 -83.599
-23.7406 -83.4102
-22.8485 -82.3708
-19.1337 -83.0697
-17.7817 -83.8921
-15.7137 -83.2532
-13.9692 -83.1196
-12.2215 -82.5589
-10.6604 -82.8613
-8.19989 -82.8605
-5.24306 -83.2231
-3.9823 -83.9205
-2.25897 -83.3079
0.560004 -83.301
1.53011 -82.8918
3.78777 -82.7447
6.20632 -82.8711
7.53464 -83.1346
10.4531 -83.536
11.2756 -84.1172
14.1845 -82.6694
16.1302 -83.1879
17.809 -83.1072
20.1844 -82.6652
22.3492 -82.8195
24.1879 -83.249
26.1063 -83.4941
27.9227 -83.9454
30.157 -83.2537
31.6238 -82.7805
33.2621 -83.232
35.4988 -82.9742
37.459 -82.6385
40.5486 -82.7376
41.5094 -82.2235
43.7851 -83.5532
45.7205 -83.3293
47.6192 -82.9409
48.7002 -83.4107
51.2622 -83.2227
52.6273 -83.9635
55.9779 -82.9378
57.4755 -83.4822
59.5664 -82.2059
62.4315 -83.626
63.1713 -82.8943
64.9129 -82.7183
67.0942 -83.9138
69.1933 -83.4138
72.0881 -83.2293
73.6667 -82.9438
76.2577 -83.1397
77.5454 -83.5015
79.4178 -82.7883
81.762 -83.9558
83.1229 -83.2433
84.4345 -83.5256
86.7168 -84.0363
89.4348 -83.3398
90.497 -83.2757
93.163 -83.4014
94.3454 -83.3685
96.8836 -83.0146
-98.4787 -80.719
-96.5946 -81.7162
-95.1386 -80.3531
-92.249 -81.0328
-90.9535 -80.8194
-88.8663 -81.2078
-86.6502 -80.9452
-84.6094 -81.7695
-83.1065 -80.7177
-81.1751 -80.5105
-79.7144 -81.3344
-77.8798 -80.2279
-74.5017 -81.0996
-73.442 -81.4357
-71.8799 -80.859
-69.3161 -81.1456
-67.9094 -81.5407
-65.731 -80.9625
-63.2041 -82.0328
-61.628 -81.2859
-59.2638 -80.5676
-57.3205 -80.3435
-56.1367 -81.7845
-53.6508 -80.7621
-51.8966 -82.104
-49.2121 -81.4006
-46.8866 -81.4508
-45.8386 -80.9202
-43.8696 -81.8172
-42.4604 -80.9987
-38.8415 -80.8576
-38.8182 -81.9284
-36.1547 -81.1498
-33.2739 -81.2509
-31.8678 -80.9199
-30.0626 -81.3536
-27.5258 -80.726
-26.3579 -80.5509
-23.1692 -80.7801
-21.7744 -81.4354
-20.7121 -81.4127
-17.4641 -81.2059
-16.1606 -81.23
-14.2548 -80.8788
-11.6863 -80.6908
-9.69795 -81.849
-8.21475 -81.2653
-5.9221 -80.8487
-3.58773 -81.5375
-2.04885 -81.0418
0.167571 -80.8843
2.4826 -81.5284
3.58146 -81.1737
5.53844 -81.3999
8.55834 -80.7667
9.99575 -81.1867
11.8178 -80.9777
13.9956 -81.6563
15.7125 -81.1199
17.7167 -80.8152
19.0513 -80.57
22.3998 -81.8214
23.4158 -81.6927
25.6452 -80.8156
27.1779 -80.9726
30.0437 -80.6299
31.5533 -81.6608
33.445 -80.9842
35.5918 -81.5147
36.953 -81.4846
39.0359 -80.8665
41.9558 -81.1799
43.5921 -80.6723
45.4659 -80.2421
47.729 -81.9096
50.095 -80.4723
50.9532 -81.1184
53.4566 -81.6617
55.2909 -79.9029
57.5522 -80.4612
58.6743 -81.3269
61.6493 -81.2366
63.1224 -81.4796
65.2849 -81.1755
67.1108 -80.9698
69.9286 -81.5457
71.4294 -81.8051
72.4864 -81.9397
74.5838 -81.8464
77.7811 -81.4265
78.8535 -80.6962
80.9834 -81.0628
83.4184 -81.2001
85.3755 -81.498
87.8028 -81.2969
88.7933 -81.1372
90.9516 -80.5082
92.9414 -81.2207
94.9516 -81.5079
97.3959 -81.0829
-98.4828 -78.9758
-97.181 -79.4577
-95.1363 -79.3005
-92.4271 -78.4853
-91.0774 -79.1149
-89.8617 -79.3199
-87.5961 -78.8845
-85.6312 -78.6719
-82.9905 -79.1272
-80.859 -79.3988
-79.0904 -78.8291
-77.5376 -79.2703
-75.5875 -78.484
-73.279 -79.2804
-71.1667 -79.7378
-68.8995 -79.0471
-67.6663 -79.3347
-65.8293 -79.5609
-62.871 -79.0937
-61.4161 -78.4538
-59.2792 -79.4671
-57.8959 -79.0014
-55.07 -79.7983
-53.847 -78.5268
-51.4255 -79.661
-49.1986 -79.9028
-47.074 -79.3418
-45.5998 -79.0202
-43.7417 -79.3266
-41.0964 -79.122
-39.396 -79.7151
-38.5063 -79.2143
-35.7382 -79.5564
-33.9016 -78.9008
-31.6765 -78.5153
-29.5427 -79.7809
-27.8357 -78.9739
-25.326 -78.3875
-23.0117 -78.9178
-21.9416 -79.6676
-19.0548 -78.8746
-17.9581 -79.441
-16.6179 -78.3447
-14.6455 -78.76
-12.2308 -79.8334
-10.2735 -79.4443
-8.85814 -79.3875
-6.3299 -78.752
-4.80446 -79.4041
-1.31812 -78.8637
-0.259304 -78.9777
0.891222 -79.1304
4.34219 -78.5913
5.86788 -79.4934
8.55076 -79.2865
9.8551 -78.6996
11.9285 -79.8529
13.7727 -78.3922
16.0397 -79.4019
17.5457 -78.8032
19.9945 -78.6044
21.7874 -79.2032
24.052 -78.9642
26.2057 -79.8126
28.0636 -78.4163
30.248 -79.1713
32.3138 -80.2903
33.7785 -79.7341
36.1838 -79.1912
36.9932 -80.1051
39.1543 -79.4901
41.7959 -79.0575
44.3488 -79.18
46.0778 -78.895
48.058 -78.9124
48.9943 -78.3987
52.4469 -79.8516
53.8811 -78.4434
54.6801 -79.0483
56.8224 -79.033
59.5491 -79.6631
61.7993 -79.6524
64.1117 -79.2756
64.9274 -79.95
67.3085 -78.7873
69.2138 -79.3809
71.2387 -79.4863
73.4255 -80.1756
74.8928 -79.9958
77.9627 -79.1179
79.0029 -78.6285
80.7533 -78.7211
83.5795 -78.9247
84.5382 -79.8652
87.8035 -79.3098
89.18 -78.7528
91.8505 -79.2438
93.6167 -80.0802
95.3139 -79.2968
97.6201 -79.042
98.8639 -77.6497
-96.7311 -77.7285
-94.6714 -77.6802
-93.6884 -77.3679
-91.4164 -77.8703
-89.3781 -77.3898
-86.6704 -77.0177
-85.2563 -77.5137
-83.1484 -77.2885
-80.7603 -76.8081
-79.3967 -76.8768
-76.665 -77.9647
-74.5563 -78.1619
-73.781 -77.1049
-71.6704 -77.2799
-69.0041 -77.6416
-67.4821 -77.7831
-65.903 -77.1742
-63.8069 -77.882
-61.1633 -77.0469
-58.8245 -77.327
-56.8858 -77.4807
-54.9462 -77.6818
-53.4401 -77.281
-51.9489 -77.4084
-49.2513 -77.1005
-47.3913 -77.3597
-45.9815 -77.0185
-43.3658 -77.7693
-41.4367 -77.5824
-40.2998 -76.9667
-38.2521 -77.4456
-35.7187 -76.7956
-33.7157 -76.6811
-31.5482 -76.2041
-29.5511 -78.0686
-27.1849 -77.5218
-25.8314 -77.44
-23.8311 -76.2216
-21.6529 -77.7113
-20.359 -77.5973
-17.9823 -77.5865
-16.1584 -76.96
-14.4465 -76.4104
-11.9486 -77.279
-9.68174 -78.2791
-7.06096 -77.0328
-6.14715 -77.6109
-3.87739 -77.8455
-1.17203 -76.7975
-0.161131 -76.9364
2.1302 -77.2999
5.013 -76.3993
5.59673 -77.2324
8.66339 -77.8095
10.0143 -77.1506
11.9245 -77.0071
14.4701 -77.1433
15.7987 -77.7679
18.0237 -76.9376
18.5106 -78.3547
20.9607 -76.5079
23.3491 -76.1931
26.3188 -77.8077
27.5888 -77.1333
29.9137 -76.9086
32.7977 -77.4563
34.483 -77.1729
35.8434 -76.7312
38.3523 -76.6933
39.4799 -77.5667
42.1207 -77.2228
44.3111 -77.0829
45.2805 -78.0356
47.0423 -76.8803
50.3034 -77.6203
51.5068 -77.431
52.6029 -76.574
55.6042 -76.3594
56.8386 -77.1594
58.8219 -77.5828
61.2838 -77.5719
63.9568 -76.2757
64.7725 -77.285
66.6329 -77.7661
69.6288 -76.3348
71.0839 -76.9311
73.7249 -76.9123
74.9993 -77.0918
77.9987 -76.5297
79.3613 -77.6695
80.9916 -77.0945
83.2869 -77.3184
85.5367 -77.4509
86.9309 -75.9426
88.3927 -77.2768
90.7764 -77.5658
92.3412 -77.8755
95.0551 -77.8687
96.8188 -76.9889
98.2703 -74.887
-97.5356 -76.4945
-95.2297 -75.9065
-92.6847 -75.3633
-91.5739 -75.4904
-89.4949 -74.4389
-86.3524 -75.3575
-85.3433 -75.6263
-83.8407 -74.1979
-80.8459 -74.1357
-78.6045 -75.225
-76.1077 -75.4461
-74.8096 -74.9063
-73.3214 -75.355
-70.864 -75.3417
-69.0154 -75.5539
-67.4304 -74.7232
-66.1477 -75.4078
-63.8061 -74.7502
-61.4545 -75.2101
-60.2617 -75.2114
-57.1582 -75.6305
-55.8848 -76.6683
-53.7006 -75.7064
-51.2237 -75.5949
-49.0844 -75.2658
-47.4174 -75.3611
-45.4451 -75.7635
-42.7306 -75.6384
-41.4199 -75.8727
-38.4386 -75.1225
-37.2189 -75.3148
-36.0498 -74.5862
-34.0848 -75.4777
-31.5786 -74.7478
-29.6725 -75.3351
-27.7476 -74.8852
-26.3443 -75.8508
-23.6898 -75.0895
-21.7491 -74.7092
-19.6068 -75.178
-18.143 -75.1623
-15.6227 -74.5796
-13.849 -75.0321
-11.5431 -75.271
-9.79027 -74.7718
-8.34934 -76.1353
-5.97682 -75.843
-3.28285 -75.922
-2.18245 -75.6435
-0.0996732 -74.4802
1.72703 -75.7172
4.34732 -75.2518
5.82665 -74.9133
8.35814 -74.5182
9.98989 -75.2047
12.2918 -76.0523
14.1241 -74.7942
15.8499 -75.0674
18.8335 -75.6969
20.1882 -74.5393
21.3443 -74.5421
22.7328 -74.4648
26.1969 -74.6909
27.83 -74.6843
29.6944 -75.9025
32.0117 -74.6091
34.1106 -75.8381
35.1786 -75.9497
37.5279 -75.9225
39.7617 -75.7496
41.4326 -75.6372
43.6467 -75.5988
45.4908 -74.5199
46.7185 -75.0073
49.7948 -74.4591
50.6909 -75.2085
53.4884 -75.3187
55.6733 -75.0918
57.6042 -75.5378
59.4574 -75.1359
61.5766 -75.2781
62.949 -75.3684
65.3947 -75.0403
67.3381 -75.1106
69.4588 -74.6546
70.5547 -75.6533
72.5602 -75.8248
75.7907 -74.9585
77.2116 -75.85
79.2777 -75.8275
81.305 -75.4058
82.6947 -75.4642
85.1176 -74.9271
86.7469 -74.6078
89.0975 -75.4747
91.1456 -74.7818
93.7466 -74.988
95.2568 -75.3467
96.1224 -75.8905
98.8304 -72.5506
-97.3099 -73.2571
-94.972 -72.9969
-92.8105 -73.4025
-91.0275 -72.5851
-88.5481 -73.8222
-86.751 -73.8546
-84.2829 -73.274
-83.0147 -72.9389
-81.4933 -73.3082
-79.5476 -73.9598
-78.0753 -72.8431
-74.8848 -73.8116
-73.9147 -72.7641
-72.2138 -73.0392
-70.2839 -73.4504
-68.3315 -73.1847
-64.8581 -74.3855
-63.3848 -72.7163
-60.7906 -73.2466
-58.8724 -73.8457
-57.5884 -73.8911
-55.7461 -74.8032
-53.4529 -72.3942
-51.0066 -72.8243
-49.459 -72.4152
-47.0228 -73.1192
-45.53 -73.6282
-43.2773 -73.8566
-41.3922 -73.0172
-39.5145 -73.3014
-36.943 -74.0247
-35.8402 -72.8987
-34.2139 -74.1033
-31.1464 -72.7976
-29.9546 -73.2387
-27.6522 -73.4627
-25.6372 -73.9433
-23.7224 -71.5791
-22.1193 -72.8196
-20.5512 -72.9664
-17.6753 -72.6706
-16.2795 -73.4069
-14.3032 -72.7593
-11.3139 -73.5951
-10.1135 -73.4346
-7.90974 -73.1727
-6.31483 -73.5202
-3.44752 -72.5984
-1.98456 -73.351
-0.611753 -73.5947
0.803128 -72.5614
3.57384 -72.8883
6.04911 -72.9597
7.84171 -72.3778
9.62565 -72.9418
11.6369 -73.6553
14.3535 -73.364
15.7669 -74.0139
17.9995 -73.3463
20.5409 -73.0805
22.1776 -73.6156
24.0478 -73.5815
25.4416 -73.784
27.9942 -73.2444
29.3049 -73.6753
31.7824 -72.9632
33.721 -72.7656
34.9784 -73.356
38.4255 -74.0423
39.0887 -72.8992
41.6929 -74.5951
44.226 -74.0805
45.2058 -73.5379
47.2796 -74.1141
50.0095 -73.447
52.3763 -72.9058
53.6985 -72.6202
55.0731 -73.1297
56.9067 -73.0945
59.5334 -72.8365
60.4477 -73.8314
63.3484 -74.2074
64.7543 -72.772
66.516 -72.5434
69.4526 -73.0712
70.5907 -73.9104
73.5277 -72.3005
75.3707 -73.4959
76.8104 -73.3442
79.2033 -73.1827
80.982 -72.1868
82.5839 -73.4886
85.1599 -72.6172
86.9723 -72.9933
88.5689 -72.9508
90.9008 -73.1286
93.4961 -72.9609
94.4739 -73.5175
97.0118 -72.9574
-98.9111 -70.8949
-97.5533 -71.0836
-94.9995 -71.307
-92.808 -71.1992
-90.9501 -71.4918
-88.5017 -71.6477
-87.1216 -71.1375
-85.0119 -70.0327
-82.2695 -70.9765
-81.1126 -70.6895
-79.7769 -71.0668
-77.8684 -71.4838
-76.4036 -71.6373
-73.1174 -71.3252
-71.1921 -71.2013
-69.589 -71.185
-67.341 -70.6467
-64.8128 -71.1907
-63.4676 -71.6603
-61.9958 -70.7865
-59.855 -71.4026
-57.2356 -71.1518
-55.3463 -72.1421
-53.8097 -71.3717
-51.666 -71.6596
-49.7172 -71.4049
-46.9511 -71.5657
-45.9087 -71.5181
-44.0285 -72.4607
-41.6376 -71.744
-39.423 -70.9686
-37.9018 -71.1796
-36.1918 -71.178
-33.4119 -70.9542
-30.7717 -70.9216
-29.7398 -71.8413
-27.1099 -71.2594
-25.1668 -71.5679
-23.2386 -70.5455
-21.5203 -71.5092
-19.848 -71.8184
-19.2343 -70.6558
-16.4085 -70.6954
-14.1219 -71.5961
-11.474 -71.375
-10.403 -71.3771
-7.37928 -71.841
-5.54047 -71.4039
-4.18722 -71.4549
-1.17905 -72.014
0.0354759 -70.3874
1.46612 -70.4547
3.87648 -71.3457
5.86321 -71.0829
7.14429 -70.8868
10.1634 -71.463
12.0713 -71.2388
15.1404 -71.1047
16.4354 -71.799
17.8678 -71.0688
20.4728 -71.1064
22.0147 -71.9096
22.9508 -70.5948
25.0735 -71.1327
28.4636 -71.5926
30.1174 -70.1928
30.8573 -71.2086
32.9956 -71.3443
36.0535 -70.4699
38.3106 -70.322
40.0633 -72.1497
40.8911 -71.5401
43.7517 -72.358
45.3658 -72.2465
47.5129 -70.6397
49.2915 -71.1755
51.2837 -71.4151
53.3962 -70.5493
55.5947 -71.5164
58.0466 -70.9338
59.5085 -71.5826
61.3888 -71.1934
63.9347 -71.7992
65.1018 -71.4425
67.3418 -71.8851
68.471 -72.4491
71.9734 -70.6269
73.6336 -70.9859
75.7016 -71.5302
78.6205 -71.336
80.0462 -71.7856
82.0055 -71.9129
83.1899 -72.009
84.9869 -70.2315
87.3552 -71.5134
89.4647 -71.3937
90.6213 -72.0485
93.0935 -70.8011
94.9771 -72.5326
98.0869 -71.8268
98.8673 -69.5365
-96.8454 -68.5009
-95.0728 -69.2369
-93.3866 -69.2383
-90.5825 -69.5004
-89.1115 -69.5278
-86.428 -69.1718
-84.817 -68.495
-82.2672 -68.1641
-81.9398 -69.308
-80.141 -68.9262
-77.2326 -69.1381
-75.5858 -69.1386
-73.4841 -69.1793
-70.7794 -69.9409
-69.5089 -69.1876
-68.3096 -69.2311
-65.5902 -68.9245
-63.5629 -69.4336
-61.5636 -69.5948
-60.339 -69.5585
-56.9282 -69.5348
-56.0246 -68.4232
-53.1473 -69.3593
-50.6106 -69.4713
-49.5153 -70.4089
-47.4411 -70.0805
-45.9166 -69.4436
-43.7228 -68.7422
-41.4335 -69.4928
-39.4951 -69.7325
-36.883 -69.0837
-35.3262 -69.318
-32.6969 -69.4978
-31.653 -69.2711
-28.8789 -69.0671
-27.6036 -70.1108
-25.5801 -69.4847
-24.19 -69.392
-21.5552 -68.6105
-20.0814 -69.8281
-18.3578 -69.2127
-16.2221 -69.715
-14.3941 -68.4792
-12.2805 -68.8494
-10.237 -69.712
-8.1443 -69.5994
-5.56505 -69.1485
-3.92205 -69.8335
-2.8572 -69.5641
-0.68437 -69.0541
1.82344 -68.594
4.30977 -69.9791
5.55216 -69.4278
8.79498 -69.5007
10.0694 -69.0931
12.9564 -68.9644
13.995 -69.9468
15.6395 -69.0115
18.0991 -69.8234
19.7389 -69.9437
21.6512 -68.9219
24.0936 -70.3303
25.573 -69.4488
26.9646 -69.0554
29.4275 -69.3351
32.2939 -68.6513
34.1955 -69.1047
35.5249 -69.2057
38.8674 -68.3474
39.9685 -69.3693
41.4537 -69.9606
44.0075 -69.1662
44.8566 -68.2787
46.9933 -69.6961
49.7494 -69.4871
50.6888 -70.3603
53.991 -69.5272
55.815 -69.0004
57.4556 -70.0266
59.368 -69.1074
61.2709 -68.4127
62.9317 -69.4603
64.6408 -69.328
66.8756 -70.1802
70.0875 -68.2107
71.6237 -69.3844
73.121 -69.9724
75.281 -69.0964
76.4652 -69.5968
78.7251 -69.5092
81.3487 -69.2272
83.8892 -70.0042
84.441 -68.6982
86.7371 -69.1835
89.26 -69.3047
90.9322 -69.9909
93.1482 -69.3216
94.5283 -69.5226
96.3142 -70.2374
-98.7186 -66.4418
-97.6357 -66.7835
-94.4223 -68.3803
-93.5078 -67.8016
-90.5714 -67.1684
-88.8121 -66.402
-87.1953 -67.5087
-85.56 -67.7449
-83.1648 -66.8989
-80.382 -67.7775
-78.8158 -68.3286
-77.3361 -67.6629
-75.1205 -67.8295
-73.0547 -67.2129
-70.9355 -67.0722
-69.5236 -66.6875
-67.8589 -66.8943
-65.4057 -67.8358
-63.7585 -67.0489
-61.2759 -67.8271
-58.7962 -67.0616
-57.0912 -68.1502
-55.7786 -67.445
-53.3581 -67.1694
-52.2066 -67.1112
-50.0302 -67.7898
-47.9133 -66.9137
-46.7189 -68.0611
-43.2351 -67.7387
-41.6761 -67.2513
-40.4205 -67.0128
-38.6523 -67.2129
-35.5612 -67.471
-33.8274 -67.0418
-32.0249 -67.065
-30.3317 -66.8562
-27.5807 -67.8107
-26.5757 -67.716
-23.8688 -67.6028
-22.0152 -66.5955
-20.2837 -67.6293
-18.4317 -67.2212
-16.2453 -67.1137
-13.4397 -67.1618
-11.477 -67.1354
-9.41663 -67.0401
-7.84493 -67.33
-6.02488 -67.55
-3.99244 -67.3223
-1.79744 -67.3832
-0.321542 -67.7161
2.0188 -67.2319
3.32146 -66.9383
6.31332 -67.7537
7.38832 -67.6893
9.52914 -67.4383
10.8526 -67.3447
13.9018 -68.1726
16.158 -67.6867
17.8644 -67.9678
19.9646 -67.392
21.668 -67.6474
22.9706 -67.3968
26.0318 -67.6332
27.5811 -67.5482
28.8749 -68.261
32.3954 -67.5391
33.6142 -67.4827
35.1781 -67.3983
38.7121 -66.8604
39.8684 -67.0041
40.8755 -67.3937
43.4315 -67.2182
46.0111 -67.6829
47.5971 -67.1155
49.9157 -67.8534
51.2129 -68.0252
53.6951 -67.2343
55.6753 -67.9996
57.7988 -66.7992
58.8179 -67.5724
61.388 -66.7983
63.08 -67.1676
65.2829 -67.1296
67.9469 -67.81
69.3901 -66.345
71.4947 -67.5872
73.4382 -67.3811
74.5827 -68.3349
76.9884 -67.3383
79.6476 -68.5637
80.7136 -68.4388
82.5429 -67.5602
84.6793 -66.8596
87.3753 -67.1221
88.1643 -67.9692
90.9297 -67.703
93.9299 -67.5997
95.4946 -67.5201
97.6085 -67.094
97.942 -65.5908
-96.5346 -65.4012
-95.3872 -65.6805
-93.6132 -64.4221
-91.501 -64.2247
-89.6721 -65.8852
-87.5942 -65.0646
-84.4696 -64.9829
-81.7646 -65.9249
-80.6795 -64.9704
-78.9046 -65.2737
-77.4145 -65.7601
-74.9977 -65.5712
-73.3768 -64.7647
-70.8531 -64.9571
-69.5744 -64.8896
-68.4181 -65.9081
-64.9727 -66.3767
-63.2223 -64.4457
-60.7949 -65.5309
-58.9855 -65.4514
-57.9003 -65.9908
-55.2077 -65.0534
-53.4919 -65.4094
-51.5282 -65.4885