ITEM: TIMESTEP
25100
ITEM: NUMBER OF ATOMS
10000
ITEM: BOX BOUNDS pp pp pp
-5.0000000000000000e+01 5.0000000000000000e+01
-5.0000000000000000e+01 5.0000000000000000e+01
-1.0000000000000000e+01 1.0000000000000000e+01
ITEM: ATOMS x y
49.8165 -49.7698
-48.5037 -49.7952
-47.6028 49.6929
-46.6535 -49.9057
-45.6889 49.4867
-44.5294 49.8892
-43.6001 -49.5639
-42.7375 49.7709
-41.8057 -49.7779
-41.0409 49.571
-40.0881 -49.6348
-39.086 49.7418
-38.2045 -49.7886
-37.2845 49.818
-36.2103 -49.8105
-35.2856 -49.2511
-34.4398 -49.8678
-33.5504 -49.3261
-32.7184 -49.93
-31.8432 49.5226
-29.7387 49.2792
-29.285 -49.7051
-28.2625 -49.6556
-27.6585 49.475
-25.0556 -49.462
-24.4973 49.6944
-23.4075 49.6481
-22.8964 -49.4652
-22.2949 49.6392
-21.2505 49.7213
-20.2408 49.8012
-19.1733 49.7517
-18.1319 49.8335
-17.1195 49.8245
-15.9625 49.8011
-14.7842 49.852
-13.7857 49.8986
-12.3811 -49.0128
-11.7305 49.9931
-11.1302 48.9444
-10.0602 49.0893
-9.55442 48.1392
-9.04907 49.2677
-8.03539 49.1083
-6.82815 49.1258
-4.67762 49.0898
-3.59049 49.4384
-2.76559 -49.9966
-1.82681 49.3973
0.0713003 -49.5273
0.936298 49.9181
1.97555 -49.5729
3.01422 49.9726
3.92033 -49.4474
4.9048 -49.8658
5.75585 -49.3418
6.62106 -49.9174
7.4975 49.5306
8.41808 -49.9758
9.33232 49.4776
10.2783 49.9063
11.3377 49.5896
12.3798 -49.9443
13.6503 49.3646
14.6304 49.7984
15.5178 49.2981
16.432 49.7366
17.2498 49.0896
18.2114 49.5547
19.2749 49.9726
20.0888 49.3457
21.0217 48.7847
21.9999 49.2605
22.9286 49.7027
23.8569 49.0387
24.6816 49.6702
25.5795 49.0296
26.5599 -49.4968
27.4104 49.8439
29.3292 49.8414
30.1872 -49.6439
31.2007 -49.1974
32.1862 -49.6803
32.9931 49.727
33.9378 -49.832
34.8538 48.5974
35.7644 49.1457
36.7882 48.5894
37.6205 49.1524
38.567 49.6362
39.412 49.0504
40.3598 49.5323
41.275 49.0416
42.2185 49.4964
43.2206 48.9929
44.2421 -49.6216
45.1625 -49.1969
46.0258 -49.7015
47.8512 -49.8205
48.791 49.7915
-49.3001 -49.1902
-48.3166 -48.684
-47.4998 -49.2914
-46.3821 -48.9137
-45.5339 -49.5256
-45.4516 -48.5319
-44.5425 -48.996
-43.6026 -48.5456
-42.7087 -49.1174
-40.9947 -49.0927
-40.0611 -48.5985
-39.148 -49.2416
-38.0398 -48.7867
-37.113 -49.1903
-36.228 -48.7452
-35.3309 -48.2501
-34.3594 -48.7036
-33.4193 -48.3031
-32.5259 -48.8309
-31.6469 -49.4133
-30.5409 -49.7812
-28.7963 -48.7974
-27.13 -49.6689
-26.1163 -49.5916
-25.7031 -48.6562
-24.5402 -48.5986
-23.915 -49.421
-23.4472 -48.534
-21.8246 -49.3725
-20.7728 -49.3479
-19.697 -49.3472
-18.681 -49.3337
-17.5747 -49.2816
-16.5427 -49.2774
-15.4586 -49.1444
-14.4396 -49.159
-13.4108 -49.1759
-11.6661 -48.0298
-11.1844 -48.9679
-10.7074 -49.9572
-9.63442 -49.9057
-8.50704 -49.9029
-8.0641 -49.0078
-7.42346 49.9603
-5.37861 -49.9082
-4.82088 -48.9853
-4.36938 -49.9015
-2.6402 -48.9876
-1.75935 -49.5109
-0.86925 -49.0336
0.96669 -49.0883
2.01975 -48.5397
2.90199 -49.0091
3.73941 -48.4377
4.8641 -48.8308
5.75294 -48.2988
6.70954 -48.8929
7.55842 -49.4356
8.42671 -48.9434
9.42443 -49.4733
10.3684 -49.037
11.3412 -49.3608
12.9292 -49.1104
13.7825 -49.6379
14.7198 -49.0996
15.5297 -49.7044
16.507 -49.1783
17.3445 -49.7602
18.2972 -49.372
19.3448 -49.0172
20.2102 -49.5704
21.0312 49.7877
21.9119 -49.7356
22.99 -49.2269
23.8535 -49.7641
24.7496 -49.2435
25.5704 -49.8491
27.4738 -49.0287
28.3977 -49.6863
29.3265 -49.1143
30.3441 -48.6467
32.1848 -48.6783
33.0782 -49.1702
33.9863 -48.7409
34.913 -49.1981
34.829 49.7168
35.8288 -49.7878
36.7111 49.6641
37.6461 -49.8101
38.5425 -49.3272
39.4727 -49.9428
40.4187 -49.4655
41.3861 -49.8848
42.3161 -49.4184
43.2883 -49.9444
44.1777 -48.5968
47.0084 -49.2124
47.9035 -48.7444
48.8309 -49.207
49.7726 -48.769
49.8822 -47.6148
-49.2018 -48.1334
-48.2789 -47.6724
-47.3801 -48.2637
-46.4813 -47.8411
-45.5009 -47.5324
-44.5305 -47.9735
-43.6142 -47.5209
-42.7158 -48.0409
-41.8592 -48.5819
-40.9361 -48.063
-39.0699 -48.1602
-38.0397 -47.6951
-37.1213 -48.1869
-36.233 -47.7032
-35.3397 -47.1792
-34.489 -47.7129
-33.5721 -47.3184
-32.5702 -47.6415
-30.8508 -48.7964
-29.8261 -48.7478
-29.2942 -47.8902
-27.7481 -48.7682
-26.7041 -48.736
-26.2103 -47.7799
-25.1209 -47.6717
-24.0576 -47.6001
-23.0196 -47.6073
-22.3997 -48.5227
-21.3014 -48.36
-20.3013 -48.4128
-19.2631 -48.3898
-18.1485 -48.3906
-17.1401 -48.3865
-16.105 -48.3759
-15.0583 -48.1436
-14.0493 -48.1677
-13.0477 -48.163
-10.6568 -48.0411
-10.1636 -48.9729
-9.60293 -48.0615
-9.15823 -48.9844
-7.52614 -48.0966
-6.45037 -49.813
-5.9043 -48.972
-4.13971 -48.224
-3.67181 -49.1128
-3.12567 -48.0869
-1.74878 -48.4871
-0.901527 -47.9419
0.0657042 -48.5048
0.947163 -47.9904
2.88428 -47.9218
3.72515 -47.3764
4.60025 -47.8663
5.45693 -47.3038
6.64345 -47.8255
7.53439 -48.3077
8.46904 -47.7432
9.26592 -48.3692
11.084 -48.3258
12.0436 -48.6575
12.9533 -48.0857
13.7952 -48.6274
14.7479 -48.0858
15.6278 -48.6683
16.5035 -48.1393
17.3832 -48.6801
18.3268 -48.3621
19.2772 -48.0063
20.2142 -48.4668
21.1147 -49.0308
22.103 -48.7428
22.9465 -48.2281
23.8891 -48.7416
24.7697 -48.2027
25.6801 -48.7481
26.6364 -48.4477
28.419 -48.6127
29.4255 -48.1108
30.3221 -47.5857
31.1868 -48.0915
32.1033 -47.6743
33.113 -48.1294
34.0467 -47.6678
35.8954 -48.6851
36.7248 -49.269
36.7738 -48.2275
37.6471 -48.7713
38.6272 -48.3127
39.4719 -48.8696
40.3651 -48.4096
41.2407 -48.8798
42.3 -48.3896
43.2333 -48.9339
45.2274 -48.1292
46.0542 -48.6808
47.0495 -48.2157
48.8672 -48.1191
48.8696 -47.119
49.7866 -46.5594
-49.1888 -47.0986
-48.248 -46.6365
-47.3532 -47.1663
-46.4624 -46.6568
-45.4599 -46.4258
-44.5295 -46.884
-43.6005 -46.4303
-42.6461 -46.9211
-41.8093 -47.5579
-40.8526 -47.0463
-39.9799 -47.5868
-38.9213 -47.0834
-37.1148 -47.1823
-36.2183 -46.6837
-35.2801 -46.1309
-34.4324 -46.6798
-33.515 -46.1358
-31.7269 -48.2083
-30.5231 -47.8316
-29.8522 -47.0555
-28.8037 -46.9749
-28.2787 -47.8639
-27.2301 -47.8126
-26.8002 -46.8859
-25.7351 -46.8422
-24.7096 -46.6759
-23.5989 -46.6662
-21.8587 -47.5051
-20.8389 -47.3704
-19.8258 -47.4364
-18.7164 -47.3892
-17.7158 -47.4108
-16.6621 -47.4058
-15.6475 -47.2966
-14.6038 -47.1836
-13.5857 -47.2515
-12.4216 -47.2584
-11.2702 -47.1
-10.1422 -47.1737
-9.10652 -47.1214
-8.58834 -48.127
-8.06036 -47.2167
-7.07116 -48.9812
-5.50023 -48.0228
-4.93157 -47.1747
-3.89341 -47.2499
-2.94538 -46.9017
-2.13468 -47.5187
-1.08965 -46.9687
0.0447733 -47.4529
1.96848 -47.5089
2.79853 -46.9193
3.62376 -46.3532
4.58222 -46.7495
5.47034 -46.2586
6.36017 -46.8575
7.54294 -47.2955
9.34113 -47.2389
10.1346 -47.8593
11.1242 -47.1579
12.0197 -47.6043
12.8758 -47.0103
13.775 -47.5211
14.6857 -46.9856
15.6385 -47.6065
16.5243 -47.1008
17.5367 -47.6904
18.4745 -47.2825
19.4517 -46.8941
20.2855 -47.4616
21.1586 -47.9863
22.1058 -47.5444
23.0451 -47.0361
23.8444 -47.6717
24.8879 -47.0873
25.6862 -47.7192
26.6415 -47.427
27.5681 -47.9036
28.5815 -47.588
29.4504 -47.046
30.3792 -46.5224
31.2617 -47.0904
33.2537 -47.0428
34.1431 -46.5656
34.9388 -48.2022
35.9194 -47.6503
36.874 -47.2006
37.763 -47.7515
38.693 -47.2576
39.5351 -47.8385
40.4865 -47.3385
41.3494 -47.8488
42.4567 -47.3825
43.3723 -47.9105
44.2773 -47.4714
46.1798 -47.5241
47.0884 -47.1057
47.974 -47.6413
47.9885 -46.5649
49.8312 -45.5645
-49.1338 -46.0871
-48.2037 -45.6432
-47.3242 -46.1392
-46.4242 -45.5932
-45.4568 -45.2574
-44.5736 -45.8199
-43.664 -45.3778
-42.6585 -45.9112
-41.7096 -46.4459
-40.7469 -45.9494
-39.9499 -46.5856
-38.9089 -46.0253
-38.0205 -46.5934
-37.0716 -46.0882
-36.1963 -45.6092
-34.3951 -45.5811
-32.4363 -45.5804
-32.604 -46.6033
-31.4351 -47.1673
-30.4977 -46.1803
-29.4091 -46.1416
-28.3668 -46.0727
-27.8133 -46.9063
-27.359 -45.9403
-26.216 -45.9084
-25.2038 -45.7549
-24.1822 -45.8193
-22.5536 -46.6605
-21.5083 -46.5472
-20.4285 -46.4242
-19.3056 -46.5092
-18.1877 -46.5185
-17.1375 -46.4446
-16.1292 -46.3813
-15.123 -46.2768
-13.9726 -46.3195
-12.8462 -46.2975
-11.8027 -46.232
-10.6642 -46.2687
-9.67314 -46.1746
-8.65208 -46.2246
-7.4674 -46.2215
-6.51093 -48.0523
-5.93324 -47.1106
-5.33224 -46.2501
-4.1963 -46.2357
-3.17093 -45.8582
-1.96943 -46.4788
-0.0457394 -46.4532
0.950565 -46.9923
1.88257 -46.4493
2.71575 -45.7836
3.57005 -45.2395
4.48044 -45.7575
6.38095 -45.8305
7.31715 -46.2887
8.37722 -46.7009
9.25002 -46.2207
10.1893 -46.6724
11.0607 -46.1347
11.9927 -46.5256
12.9329 -45.9742
13.807 -46.5125
14.7379 -45.9854
15.6522 -46.5998
16.5586 -46.1119
17.4761 -46.656
18.4199 -46.2743
19.3672 -45.8953
20.3494 -46.4317
21.2799 -46.9354
22.206 -46.4387
23.095 -45.9656
23.9724 -46.6248
24.9723 -45.9871
25.8041 -46.6925
26.8843 -46.3629
27.774 -46.9077
28.5803 -46.2755
29.5155 -45.9392
31.3187 -46.0193
32.3538 -46.6005
33.2595 -45.9562
35.033 -46.0874
34.998 -47.2025
35.8719 -46.6352
36.8162 -46.1669
37.759 -46.7522
38.7015 -46.2136
39.5947 -46.8355
40.568 -46.3239
41.5622 -46.8625
42.5284 -46.253
43.4352 -46.892
44.3979 -46.4765
45.2874 -47.0043
46.2066 -46.4754
47.1204 -46.0516
48.9369 -46.0365
48.9148 -45.0266
-49.2014 -45.0918
-48.2327 -44.621
-47.3455 -45.1235
-46.3321 -44.5888
-45.3938 -44.202
-44.4768 -44.7918
-43.5601 -44.3835
-42.6863 -44.873
-41.7472 -45.3507
-40.8341 -44.9408
-39.8121 -45.5497
-38.8343 -44.9768
-38.0195 -45.556
-37.0664 -45.0764
-36.1817 -44.6012
-35.2619 -45.0723
-34.2227 -44.5503
-33.3118 -45.0771
-31.5256 -46.0428
-31.053 -45.1647
-29.985 -45.3094
-28.8286 -45.0799
-27.8176 -45.0448
-26.7487 -45.068
-25.6438 -44.7971
-24.6435 -44.8425
-23.1662 -45.7373
-22.0203 -45.6879
-21.0133 -45.5718
-19.8011 -45.6046
-18.7764 -45.651
-17.7619 -45.5487
-16.7428 -45.476
-15.6244 -45.3308
-14.5549 -45.3345
-13.54 -45.3684
-12.3953 -45.3567
-11.2768 -45.3646
-10.2623 -45.2645
-9.204 -45.2756
-8.20159 -45.3243
-6.99642 -45.3298
-6.93743 -47.1121
-6.4076 -46.2086
-4.93617 -45.3232
-3.94577 -45.1776
-2.23106 -45.4097
-1.0948 -45.9158
-0.022237 -45.3943
0.824202 -45.9429
1.69306 -45.4062
2.61838 -44.6904
4.50293 -44.7295
5.56654 -45.19
6.39727 -44.6366
7.30432 -45.195
8.27935 -45.6797
9.22188 -45.1505
10.1638 -45.6143
11.093 -45.028
11.9568 -45.524
12.8333 -44.9261
13.8109 -45.508
14.7825 -44.908
15.7012 -45.559
16.6812 -45.1082
17.5965 -45.6603
18.5275 -45.2815
19.4809 -44.7402
20.2744 -45.3805
21.335 -45.9289
22.2681 -45.4113
23.153 -44.8712
24.0752 -45.5505
24.9482 -44.9875
25.8721 -45.5529
26.8086 -45.1436
27.7058 -45.6436
28.6255 -45.1861
29.571 -44.804
30.4121 -45.4351
32.3645 -45.4806
33.2888 -44.9555
34.1672 -45.5274
35.1232 -45.0574
35.9964 -45.5989
36.8906 -45.1513
37.8088 -45.702
38.737 -45.1649
39.628 -45.8161
40.4997 -45.2266
41.5033 -45.829
42.5108 -45.2394
43.4796 -45.8535
44.3638 -45.3082
45.2639 -45.9639
46.1372 -45.4463
47.1261 -44.9769
48.0451 -45.5424
49.8889 -44.5404
-49.0571 -43.9701
-48.1406 -43.4921
-47.2831 -44.0797
-46.3249 -43.5115
-45.3319 -43.1388
-44.4651 -43.6734
-43.5322 -43.3251
-42.6742 -43.8764
-41.7166 -44.3571
-40.6949 -43.9246
-39.828 -44.451
-38.9474 -43.9733
-37.9401 -44.5301
-37.0383 -44.0279
-36.115 -43.5989
-35.1329 -44.044
-33.2494 -44.0149
-32.3925 -43.5111
-32.41 -44.5767
-31.4492 -44.0507
-30.4619 -44.3438
-29.4337 -44.269
-28.3464 -44.1772
-27.3483 -44.0798
-26.1918 -43.9187
-25.1604 -43.9199
-23.6332 -44.816
-22.5155 -44.7954
-21.4279 -44.6665
-20.4307 -44.7385
-19.4319 -44.6688
-18.3904 -44.6032
-17.3358 -44.5125
-16.235 -44.365
-15.1932 -44.3917
-14.0076 -44.4602
-12.9259 -44.4973
-11.8676 -44.492
-10.7664 -44.3585
-9.69646 -44.378
-8.66586 -44.4092
-7.60193 -44.5269
-6.60762 -44.2227
-5.93436 -45.2423
-4.48788 -44.3205
-3.03225 -44.7748
-2.08169 -44.4226
-0.944971 -44.9296
-0.0608752 -44.3544
0.845032 -44.846
1.72283 -44.2378
3.62073 -44.1988
4.6102 -43.6498
5.50237 -44.1239
6.43385 -43.5507
7.28944 -44.125
8.314 -44.5609
9.18634 -44.0228
10.0746 -44.5374
11.0002 -43.8904
11.9515 -44.4077
12.8979 -43.9045
13.8302 -44.4889
14.7707 -43.8818
15.7175 -44.5593
16.6292 -44.1099
17.6289 -44.6431
18.5807 -44.2882
19.4643 -43.7056
20.4055 -44.3213
21.2924 -44.8953
22.1723 -44.3784
23.1256 -43.8584
24.0895 -44.4174
25.0374 -43.9671
25.8595 -44.532
26.7476 -44.0715
27.671 -44.5934
28.6686 -44.1374
30.5789 -44.4271
31.4735 -45.0045
32.4 -44.4522
33.4469 -43.7395
34.1591 -44.447
35.1036 -44.0589
36.0252 -44.5971
36.9404 -44.0261
37.805 -44.6919
38.7952 -44.1524
39.6713 -44.6712
40.5964 -44.1885
41.4928 -44.7576
42.6031 -44.1886
43.4826 -44.7986
44.3318 -44.1919
45.3059 -44.89
46.1975 -44.441
48.0359 -44.5109
48.992 -43.9885
-49.9898 -43.4193
-49.023 -42.9196
-48.1104 -42.47
-47.2204 -43.0138
-46.3493 -42.5022
-45.4116 -42.1104
-44.3675 -42.6751
-43.3292 -42.3428
-42.4751 -42.8859
-41.5298 -43.3192
-40.6281 -42.884
-39.734 -43.3422
-38.7589 -42.9176
-37.8723 -43.4345
-36.9256 -43.0166
-36.0697 -42.4839
-35.1432 -42.9994
-34.2314 -43.5516
-33.2451 -42.9779
-32.2041 -42.503
-31.3194 -42.9776
-30.0589 -43.296
-29.0097 -43.3632
-27.9412 -43.1865
-26.9184 -43.1768
-25.7229 -43.0316
-24.0996 -43.8201
-23.0666 -43.948
-22.0904 -43.7243
-21.0929 -43.7157
-19.9668 -43.7829
-18.9519 -43.7248
-17.8786 -43.6374
-16.8619 -43.5335
-15.7944 -43.4536
-14.5635 -43.5605
-13.528 -43.5851
-12.4583 -43.5536
-11.4274 -43.5316
-10.1557 -43.4926
-9.09433 -43.4846
-8.0778 -43.4506
-7.08694 -43.2881
-6.08101 -43.3534
-5.47677 -42.5547
-5.53074 -44.2535
-2.84425 -43.7196
-1.88623 -43.3992
-1.01807 -43.9331
-0.135426 -43.3428
0.806284 -43.8194
1.90128 -43.1446
2.73238 -43.69
3.71401 -43.1766
5.51429 -43.0941
6.32337 -42.472
7.29617 -43.0416
8.15376 -43.5518
9.15871 -42.728
9.995 -43.4096
10.9842 -42.8012
11.8646 -43.3981
12.8953 -42.8178
13.8179 -43.3963
14.7033 -42.7993
15.7768 -43.519
16.7079 -43.1146
17.7012 -43.6465
18.5871 -43.108
19.449 -42.5991
20.4351 -43.2954
21.289 -43.8564
22.213 -43.3766
23.0986 -42.8134
24.1151 -43.3703
25.0766 -42.8765
25.9303 -43.4996
26.7914 -43.0006
27.64 -43.5881
28.6685 -43.1391
29.6203 -43.7319
30.6012 -43.3638
31.5351 -43.9416
32.4739 -43.3987
34.3901 -43.3485
35.2475 -42.8047
35.9655 -43.489
37.0115 -42.9719
37.9057 -43.672
38.8329 -43.1057
39.7508 -43.6193
40.8047 -43.2166
41.72 -43.6982
42.5848 -43.135
43.4729 -43.6017
44.3844 -43.1589
45.3268 -43.8826
46.2409 -43.3504
47.1101 -43.9733
48.1461 -43.2681
49.162 -42.8686
-49.9378 -42.3636
-48.9784 -41.8867
-47.2108 -41.9917
-46.286 -41.4967
-45.3598 -41.0268
-44.4106 -41.6658
-43.4333 -41.2321
-42.4936 -41.7593
-41.5777 -42.3028
-40.671 -41.752
-39.7788 -42.3405
-38.7662 -41.8866
-37.7413 -42.4191
-36.9073 -41.801
-35.9812 -41.4226
-35.1429 -41.9913
-34.2037 -41.3621
-34.2347 -42.426
-33.2952 -41.9157
-31.416 -41.8793
-30.516 -42.3765
-29.5219 -42.4288
-28.5022 -42.339
-27.4513 -42.2918
-26.3811 -42.2399
-24.7023 -43.0344
-23.492 -42.9845
-22.4698 -42.7792
-21.4734 -42.7067
-20.464 -42.9002
-19.4699 -42.835
-18.4592 -42.8032
-17.4456 -42.5788
-16.3288 -42.6083
-15.1155 -42.7093
-14.0108 -42.6185
-12.9948 -42.6454
-11.8985 -42.6324
-10.7848 -42.683
-9.76991 -42.4837
-8.56261 -42.5488
-7.55512 -42.4074
-6.49714 -42.4201
-5.13938 -41.5598
-4.96376 -43.4408
-3.93234 -43.4667
-2.37945 -42.5123
-1.03786 -42.8572
-0.122916 -42.3475
0.835831 -42.8258
1.72104 -42.146
2.83348 -42.6702
3.62626 -42.0357
4.51227 -42.5705
5.44872 -41.9148
6.35753 -41.3547
8.14776 -42.3656
9.19953 -41.7329
10.1235 -42.3006
11.0741 -41.7945
11.9323 -42.3911
12.7758 -41.8091
13.7867 -42.18
14.8959 -41.8064
15.7768 -42.5082
16.7662 -42.042
17.6514 -42.6309
18.5645 -42.1055
19.512 -41.5831
20.4086 -42.1419
21.2892 -42.72
22.1993 -42.2997
23.2135 -41.8122
24.0678 -42.3665
25.1048 -41.8414
25.971 -42.4139
26.8773 -41.9643
27.8259 -42.5927
29.7179 -42.6758
29.7853 -41.5823
30.5962 -42.2008
31.5895 -42.8289
33.4387 -42.7234
34.3815 -42.2417
35.2553 -41.7016
36.0972 -42.2754
37.0504 -41.8487
37.935 -42.4195
38.9463 -42.0109
39.8475 -42.5519
40.7759 -42.0678
41.6801 -42.6951
42.5662 -42.1347
43.548 -42.5079
44.5573 -42.1661
45.3785 -42.8343
46.3754 -42.3555
47.2272 -42.8755
48.2964 -42.2368
49.2267 -41.8096
-49.8247 -41.2203
-48.0571 -41.448
-47.1262 -40.9505
-46.1834 -40.3939
-45.1793 -39.9444
-44.2437 -40.6512
-43.3004 -40.169
-42.4054 -40.7381
-41.5691 -41.3075
-40.5035 -40.7705
-39.6246 -41.3092
-38.6924 -40.8297
-37.8408 -41.3642
-36.8522 -40.8013
-35.8885 -40.2272
-35.0522 -40.7792
-34.104 -40.2642
-33.297 -40.8764
-32.3931 -41.4815
-31.467 -40.8107
-30.0396 -41.4927
-29.0021 -41.4267
-27.9883 -41.4459
-26.7868 -41.3206
-25.2638 -42.1458
-24.2155 -42.1143
-23.1453 -42.004
-22.1606 -41.8172
-21.0488 -41.7016
-20.0612 -41.9228
-18.9882 -41.834
-17.9897 -41.689
-16.9275 -41.7211
-15.7966 -41.7164
-14.6532 -41.8148
-13.4993 -41.7484
-12.3959 -41.768
-11.3614 -41.742
-10.3392 -41.639
-9.23442 -41.6049
-8.20272 -41.6055
-7.19112 -41.4631
-6.18767 -41.3773
-4.51586 -40.5243
-4.42364 -42.4262
-3.42161 -42.5865
-3.07858 -41.6233
-1.07298 -41.8615
-0.217142 -41.3396
0.777554 -41.7698
1.59713 -41.0853
2.60679 -41.6034
3.46336 -41.0389
4.51177 -41.5116
5.41668 -40.8873
7.34393 -40.915
7.20646 -41.9774
9.20511 -40.7022
10.1689 -41.2704
10.9631 -40.5438
11.9988 -41.1838
12.9137 -40.7505
13.9819 -41.1898
14.9991 -40.7951
15.84 -41.3926
16.7583 -40.9933
17.6432 -41.5494
18.644 -41.0392
19.5361 -40.5836
20.5023 -41.0232
21.3654 -41.7163
22.3374 -41.2768
23.1477 -40.6953
24.1618 -41.342
25.1214 -40.8303
25.9784 -41.3669
26.9785 -40.9725
27.8083 -41.5707
28.8397 -42.1278
29.6974 -40.5071
30.6779 -41.0885
31.6405 -41.8242
32.5191 -42.2858
33.4958 -41.7213
35.3657 -40.7096
36.2051 -41.2817
37.1638 -40.7913
38.0265 -41.389
38.9633 -40.8993
39.9836 -41.4408
40.8775 -40.9869
41.6797 -41.6189
42.7781 -41.0176
43.7568 -41.5328
44.6886 -41.1108
45.5176 -41.7224
46.4552 -41.1613
47.2973 -41.8712
48.348 -41.1539
49.2652 -40.7331
-49.6992 -40.228
-48.8513 -40.8411
-47.961 -40.3412
-47.0569 -39.8851
-46.0385 -39.3976
-44.9949 -38.9566
-44.2141 -39.6187
-42.3423 -39.6731
-41.4545 -40.2896
-40.4217 -39.7203
-39.5681 -40.3085
-38.5964 -39.8002
-37.7034 -40.2447
-36.7747 -39.7341
-35.8571 -39.1835
-34.9998 -39.7844
-34.0107 -39.2242
-33.1009 -38.7347
-33.212 -39.8198
-32.3711 -40.3736
-30.4906 -40.6023
-29.4729 -40.5256
-28.4634 -40.5658
-27.4555 -40.5421
-25.7881 -41.2004
-24.7916 -41.0404
-23.7882 -41.1441
-22.7108 -40.9504
-21.6384 -40.8869
-20.5806 -40.7457
-19.5659 -40.981
-18.5772 -40.8353
-17.3679 -40.8252
-16.3526 -40.8521
-15.2163 -40.878
-14.0639 -40.8256
-12.9515 -40.898
-11.8813 -40.8725
-10.8744 -40.7825
-9.8163 -40.6201
-8.82087 -40.6708
-7.67634 -40.5384
-6.6213 -40.4357
-5.58352 -40.5404
-3.81329 -39.698
-4.06804 -41.4697
-2.0209 -41.4569
-1.17725 -40.8684
-0.352869 -40.2711
0.64549 -40.7696
1.47281 -40.0771
2.49219 -40.5028
3.46167 -40.005
4.34473 -40.5055
5.30549 -39.87
6.25173 -40.284
8.28747 -41.3008
9.1046 -39.7116
10.024 -40.1228
10.8707 -39.5556
11.9108 -40.1726
12.9941 -39.2828
13.8332 -40.1134
14.9985 -39.7176
15.8813 -40.2884
16.8329 -39.9619
17.6723 -40.5375
18.5755 -39.9617
19.4952 -39.568
20.4287 -39.9982
21.4629 -40.6766
22.3193 -40.1167
23.3427 -39.6567
24.2477 -40.157
25.2384 -39.7314
26.1419 -40.3306
27.1013 -39.9173
27.8828 -40.5277
28.729 -41.1236
29.8616 -39.4391
30.7084 -40.0557
31.6201 -40.6413
32.4901 -41.1976
34.3704 -41.2428
35.3755 -39.6675
36.2625 -40.218
37.2615 -39.7762
38.0955 -40.3271
39.0382 -39.8739
39.9649 -40.3713
40.9991 -39.9645
41.857 -40.5858
42.8342 -39.9932
43.6869 -40.5259
44.6548 -40.1189
45.6198 -40.595
46.4991 -40.1305
47.4089 -40.6159
48.349 -40.1298
49.3548 -39.6751
-49.7028 -39.2348
-48.8141 -39.7686
-47.9151 -39.3274
-47.0372 -38.7967
-46.0307 -38.3876
-44.0838 -38.4915
-43.2684 -39.1254
-42.2422 -38.613
-41.4176 -39.2951
-40.4585 -38.7245
-39.4554 -39.2757
-38.6345 -38.6466
-37.7227 -39.238
-36.7127 -38.6753
-35.7344 -38.1291
-34.9338 -38.7237
-34.0503 -38.2041
-33.0341 -37.723
-32.2701 -39.382
-31.1211 -39.7879
-29.9686 -39.6454
-28.953 -39.6129
-27.9173 -39.5988
-26.4422 -40.1338
-25.4274 -40.124
-24.4077 -40.0669
-23.331 -40.1476
-22.2547 -40.0589
-21.2549 -39.9621
-20.1548 -39.8059
-19.1628 -39.8667
-18.0422 -39.9553
-16.9035 -39.8681
-15.8215 -39.9724
-14.7524 -39.9685
-13.7191 -39.8287
-12.6559 -39.8619
-11.566 -39.8708
-10.5289 -39.8346
-9.23901 -39.7179
-8.14815 -39.6174
-7.03108 -39.5165
-5.91822 -39.591
-4.87304 -39.5004
-4.13312 -38.753
-3.42125 -40.6467
-2.3789 -40.5153
-1.2771 -39.8452
-0.307185 -39.1696
0.547347 -39.678
1.61381 -38.9048
2.47533 -39.4824
4.33234 -39.4852
5.13555 -38.8209
6.09643 -39.2455
7.1193 -39.7216
8.118 -40.2306
8.88004 -38.0676
9.86528 -38.9306
10.8541 -38.5153
11.8624 -39.1207
12.5657 -38.319
14.1142 -39.1521
14.8481 -38.4338
15.7248 -38.9784
16.8625 -38.8502
17.7296 -39.4425
18.6158 -38.9509
19.4807 -38.4375
20.4392 -38.9716
21.3603 -39.5697
22.3985 -39.0211
23.3808 -38.5909
24.4069 -39.135
25.3566 -38.7402
26.21 -39.3396
27.0589 -38.8118
27.9605 -39.4022
28.7816 -40.0186
30.8156 -39.0608
31.64 -39.6209
32.5955 -40.0793
33.4292 -40.7176
34.4654 -40.234
35.3359 -38.6212
36.3648 -39.1772
37.4252 -38.6153
38.1987 -39.3261
39.2705 -38.703
40.1136 -39.3429
41.1109 -38.8749
41.9308 -39.5724
42.7789 -38.9518
43.8306 -39.4537
44.7152 -38.8734
45.5385 -39.4351
46.5705 -39.1242
47.4925 -39.5779
48.4485 -39.0727
49.4638 -38.6742
-49.6483 -38.0664
-48.8098 -38.7324
-47.9128 -38.1799
-46.8764 -37.804
-45.9358 -37.3452
-44.9794 -37.9552
-43.11 -38.0563
-42.2367 -37.5462
-41.3697 -38.1068
-40.4843 -37.6383
-39.5409 -38.1283
-38.6002 -37.5522
-37.6959 -38.2287
-36.6579 -37.6786
-35.8023 -37.0402
-34.8061 -37.482
-33.8725 -37.0788
-32.0087 -37.9058
-31.4691 -38.7794
-30.4935 -38.5519
-29.4884 -38.6678
-28.4705 -38.6571
-27.025 -39.1345
-26.0036 -39.2017
-24.9359 -39.1724
-23.9079 -39.1943
-22.8712 -39.241
-22.3781 -38.3176
-21.7039 -39.0744
-20.6795 -38.9168
-19.5938 -38.9572
-18.5721 -38.938
-17.5705 -38.9587
-16.2925 -39.0295
-15.2914 -39.0287
-14.3003 -38.9232
-13.1805 -38.9496
-12.0613 -39.0037
-11.0076 -38.8735
-9.95697 -38.8968
-8.64387 -38.7332
-7.54945 -38.6474
-6.54346 -38.6305
-5.38565 -38.5642
-3.04919 -37.8287
-2.25503 -39.4315
-2.19609 -38.3706
-1.27737 -38.8369
-0.412604 -38.1623
0.628591 -38.573
1.60507 -37.8922
2.51719 -38.3838
3.40041 -39.0126
4.23524 -38.3764
6.86837 -37.7779
7.18079 -38.7284
8.20031 -38.943
9.90147 -37.8733
10.9217 -37.5228
12.0266 -37.4371
13.0284 -37.4112
14.0472 -37.3466
13.6032 -38.2685
15.0473 -37.3678
15.877 -37.9784
16.9218 -37.7971
17.7698 -38.3631
18.5763 -37.7512
19.5964 -37.3558
20.5313 -37.9322
21.4939 -38.5662
22.3625 -38.0121
23.4147 -37.5481
24.272 -38.1268
25.2905 -37.6985
26.214 -38.1853
27.1104 -37.6682
28.0829 -38.2821
28.9405 -38.9855
29.954 -38.4373
31.6838 -38.4897
32.5292 -39.0116
33.5557 -39.5706
34.4689 -39.1305
35.5536 -37.6147
36.4836 -38.1189
37.536 -37.6055
38.3653 -38.2252
39.4088 -37.6929
40.2077 -38.3246
41.1062 -37.8138
41.9638 -38.3519
42.931 -37.8634
43.8198 -38.4372
44.7657 -37.8246
45.8118 -38.3843
46.7284 -37.9617
47.5315 -38.5843
48.5306 -38.0334
49.4758 -37.5881
-49.6553 -37.0693
-48.7293 -37.5193
-47.7288 -37.1224
-46.7174 -36.6982
-44.9741 -36.9003
-44.041 -37.4898
-43.1303 -37.0607
-42.2277 -36.5188
-41.3221 -37.0489
-40.4325 -36.5501
-39.5035 -37.109
-38.4781 -36.5315
-37.5954 -37.1733
-36.7632 -36.5345
-35.9342 -35.9853
-34.9654 -36.4271
-34.0086 -36.0651
-32.824 -36.6386
-31.6793 -36.9092
-31.024 -37.6673
-29.949 -37.7084
-28.8828 -37.7544
-27.7391 -37.913
-26.5357 -38.0563
-25.5404 -38.1317
-24.5393 -38.1555
-23.3787 -38.3279
-22.8964 -37.4479
-21.3191 -38.1347
-20.8462 -37.1776
-20.1656 -38.0174
-19.0455 -38.0109
-18.0513 -37.939
-16.9084 -38.0704
-15.878 -38.1051
-14.8505 -38.0213
-13.7309 -38.0271
-12.6317 -38.1121
-11.5322 -38
-10.4462 -37.9896
-9.30066 -37.9771
-8.16869 -37.8504
-7.15369 -37.7301
-6.09155 -37.7254
-4.03583 -37.5774
-3.12468 -38.9501
-2.19583 -37.2069
-1.29797 -37.6549
-0.386924 -37.0964
0.579821 -37.5431
1.35652 -36.9145
4.11681 -37.2297
5.08763 -37.5072
5.91329 -38.1493
6.06962 -37.1388
7.30109 -36.8777
7.88184 -37.9872
9.36737 -36.9591
10.4477 -36.61
11.4521 -36.6124
12.4864 -36.5349
13.6129 -36.3933
14.6552 -36.3919
15.6899 -36.1764
16.2431 -37.0541
16.7332 -36.0894
17.6726 -37.0606
18.7945 -36.7592
19.7835 -36.1767
20.5468 -36.8217
21.4686 -37.5095
22.4271 -37.0103
23.3909 -36.5492
24.4394 -37.1119
25.2946 -36.5982
26.3149 -36.9871
27.3003 -36.6054
28.1133 -37.2837
29.036 -37.9956
29.9943 -37.3181
30.8393 -37.8982
32.6912 -37.9967
33.5919 -38.543
34.53 -38.024
35.7585 -36.551
36.633 -37.045
37.5523 -36.5499
38.5232 -37.1324
39.4008 -36.5919
40.2464 -37.1528
41.1588 -36.7407
42.0281 -37.2589
43.0202 -36.83
43.8474 -37.4458
44.7369 -36.7973
45.6791 -37.3708
46.6051 -36.8991
47.5787 -37.4132
48.6 -36.9283
49.438 -36.327
-49.605 -35.8403
-48.7189 -36.4892
-47.7487 -36.1
-45.7922 -36.3039
-44.8407 -35.8853
-43.9777 -36.4583
-43.1119 -35.9338
-42.2161 -35.4699
-41.3213 -36.0018
-40.4137 -35.4755
-39.5343 -36.1024
-38.6072 -35.5129
-37.6746 -35.9032
-36.7824 -35.4559
-35.6628 -34.8494
-34.8147 -35.3827
-33.1061 -35.4852
-32.0524 -35.8057
-31.069 -35.9871
-30.4286 -36.7616
-29.4178 -36.8547
-28.275 -36.8335
-27.082 -37.0622
-26.0781 -37.1574
-25.0288 -37.2504
-23.9927 -37.3
-23.4575 -36.3701
-22.3855 -36.2696
-21.897 -37.3063
-21.3102 -36.283
-19.8665 -36.9686
-18.7459 -37.0134
-17.4935 -37.0295
-16.4119 -37.203
-15.4165 -37.1879
-14.3269 -37.1596
-13.2824 -37.1233
-12.1828 -37.1635
-10.9566 -37.1219
-9.90686 -37.102
-8.87885 -37.0153
-7.73999 -36.9091
-6.5448 -36.7938
-5.02233 -37.3092
-4.21541 -36.5806
-3.13554 -36.8236
-2.22765 -36.2084
-1.28475 -36.6217
-0.459237 -35.9992
0.417297 -36.4873
3.16339 -37.5963
3.36849 -36.5057
4.41022 -36.2757
5.51135 -36.2426
6.52516 -36.2355
7.70923 -35.9326
8.31713 -37.0876
8.722 -36.1051
9.78572 -35.8552
10.9072 -35.7202
11.9882 -35.6525
13.0047 -35.5494
14.047 -35.4316
15.089 -35.3394
16.1283 -35.2665
17.1876 -35.0985
17.9157 -36.0469
18.8775 -35.7014
19.7455 -35.0584
20.734 -35.7144
21.5599 -36.4567
22.5957 -35.859
23.514 -35.3704
24.2863 -36.0391
25.5772 -35.4844
26.444 -35.9954
27.4105 -35.6073
28.2796 -36.231
29.1209 -36.7702
30.9835 -36.8569
31.7943 -37.4408
32.7861 -36.9859
33.6342 -37.5027
34.7895 -36.9651
35.7073 -35.4954
36.6196 -35.9102
37.5796 -35.5492
38.5259 -36.0371
39.4534 -35.5987
40.3012 -36.1474
41.2311 -35.6217
42.0773 -36.1764
43.0325 -35.7406
43.8642 -36.2904
44.8067 -35.7881
45.7415 -36.3513
46.6483 -35.8298
47.6085 -36.4057
48.4871 -35.9295
49.5587 -35.2663
-49.4612 -34.7838
-48.5955 -35.484
-47.6734 -35.043
-46.7546 -35.5953
-45.8697 -35.1106
-43.9701 -35.3826
-43.0962 -34.8773
-42.1833 -34.3882
-41.3371 -34.9641
-40.4279 -34.475
-39.5105 -35.0496
-38.7058 -34.4047
-37.8046 -34.8853
-36.9369 -34.354
-35.9724 -33.8785
-34.7149 -34.2725
-33.6014 -34.5501
-32.3893 -34.6658
-31.3846 -34.9033
-29.8074 -35.8854
-29.2133 -35.0579
-28.6757 -35.92
-27.6459 -36.0408
-26.6484 -36.1618
-25.5626 -36.3021
-24.4924 -36.2963
-23.9689 -35.4329
-22.8412 -35.3715
-21.8209 -35.425
-20.3299 -35.9864
-19.2892 -36.0438
-18.2227 -36.1613
-17.1974 -36.0505
-16.0299 -36.167
-14.9418 -36.2209
-13.8874 -36.2172
-12.6919 -36.2536
-11.5567 -36.2554
-10.4418 -36.238
-9.43472 -36.0408
-8.35201 -36.0146
-7.30056 -36.0115
-6.25739 -35.792
-5.23535 -36.1715
-4.35306 -35.5583
-3.33291 -35.8311
-2.55211 -35.1998
-1.44469 -35.5779
-0.574166 -34.9382
1.61161 -35.7907
2.35681 -36.714
2.68924 -35.777
3.73299 -35.5173
5.02001 -35.3496
6.02382 -35.3707
7.00156 -35.1009
8.13338 -34.9965
9.1387 -35.0674
10.3227 -34.8988
11.367 -34.7185
12.3681 -34.7305
13.3898 -34.5394
14.3865 -34.4376
15.4596 -34.3971
16.4828 -34.3286
17.541 -34.1506
18.2423 -34.912
18.8011 -34.0972
20.8552 -34.7114
21.7918 -34.2843
21.6838 -35.3938
22.643 -34.7951
23.6858 -34.2519
24.4885 -35.036
25.3938 -34.4303
26.565 -34.9942
28.2778 -35.0749
29.1525 -35.727
30.0297 -36.3204
30.9984 -35.8257
31.9143 -36.4514
32.9123 -35.9725
33.7922 -36.4886
34.7975 -35.952
35.6827 -34.401
36.6997 -34.9158
37.5547 -34.3735
38.4637 -35.022
39.4055 -34.5862
40.3528 -35.0955
41.2354 -34.5511
42.1176 -35.1507
43.0262 -34.6985
43.9348 -35.2811
44.8895 -34.7841
45.7169 -35.3376
46.7329 -34.7952
47.6329 -35.2638
48.627 -34.7509
49.6692 -34.2722
-49.4 -33.7759
-48.5042 -34.4826
-47.6087 -34.0178
-46.663 -34.4012
-45.7192 -34.0696
-44.8226 -34.8451
-43.942 -34.3111
-42.7829 -33.5802
-41.2795 -33.9479
-40.4464 -33.32
-39.5542 -33.8414
-38.7014 -33.3136
-37.8249 -33.8783
-37.0443 -33.234
-36.1218 -32.8171
-33.9669 -33.5977
-32.9635 -33.7415
-31.7223 -33.8369
-30.7246 -33.9794
-30.3315 -35.0339
-29.6707 -34.1673
-28.6599 -34.2201
-28.1066 -35.0998
-27.0496 -35.2202
-26.0489 -35.2323
-25.0575 -35.4162
-24.395 -34.5306
-23.3576 -34.5273
-22.3091 -34.5214
-20.8381 -35.0226
-19.764 -35.0661
-18.6113 -35.2109
-17.603 -35.0969
-16.5135 -35.2909
-15.5005 -35.2997
-14.3423 -35.1864
-13.3178 -35.3415
-12.2044 -35.3818
-10.9896 -35.3758
-9.9825 -35.1615
-8.92313 -35.1388
-7.87501 -35.0839
-6.38423 -34.7075
-5.15996 -34.9657
-4.40202 -34.2996
-3.47327 -34.7921
-2.64146 -34.1861
-1.70223 -34.557
-0.761625 -33.9347
0.405785 -35.4844
1.10708 -34.7789
2.13961 -34.8303
3.31896 -34.5087
4.33364 -34.3476
5.39912 -34.296
6.45697 -34.2626
7.48893 -34.1973
8.64997 -34.0655
9.68508 -34.1278
10.7391 -33.9173
11.795 -33.7384
12.8158 -33.7151
13.814 -33.6033
14.8186 -33.5144
15.8398 -33.3846
16.8577 -33.3786
17.9154 -33.2191
18.9331 -33.0597
19.8084 -34.0054
20.7695 -33.6559
21.8696 -33.2577
22.763 -33.7413
23.7741 -33.142
24.5683 -33.7759
26.539 -33.9329
27.4073 -34.4413
28.3416 -34.0826
29.2478 -34.6737
30.1151 -35.2973
30.996 -34.8262
31.9548 -35.3906
32.8625 -34.9762
33.759 -35.4178
34.7822 -34.8891
35.7867 -33.4102
36.6997 -33.8483
37.6401 -33.37
38.5053 -33.9596
39.4398 -33.5398
40.3027 -34.0909
41.1986 -33.5597
42.1917 -34.097
43.0452 -33.5677
43.942 -34.2346
44.9442 -33.7621
45.846 -34.1999
46.8423 -33.7182
47.7225 -34.252
48.687 -33.672
49.707 -33.2494
-49.3718 -32.779
-48.5068 -33.2773
-47.5352 -32.9283
-46.6409 -33.397
-45.6776 -32.9402
-44.7628 -33.6295
-43.7796 -33.1245
-42.7624 -32.4393
-41.74 -33.0598
-40.7821 -32.3486
-39.5853 -32.8091
-38.8227 -32.145
-37.9249 -32.6381
-36.9746 -32.0786
-35.1107 -33.3355
-34.3057 -32.6294
-33.3077 -32.7944
-32.2192 -32.9693
-31.1902 -32.9964
-30.0806 -33.1304
-29.0795 -33.2209
-28.082 -33.2899
-27.6195 -34.1817
-26.4515 -34.2706
-25.4044 -34.3243