ITEM: TIMESTEP
3100
ITEM: NUMBER OF ATOMS
10000
ITEM: BOX BOUNDS pp pp pp
-9.9000000000000000e+01 9.9000000000000000e+01
-9.9000000000000000e+01 9.9000000000000000e+01
-1.9800000000000001e+01 1.9800000000000001e+01
ITEM: ATOMS x y
-98.0172 98.3619
-97.0477 -98.5884
-93.9431 -98.2908
-92.4405 -98.2865
-91.4169 -98.0874
-88.3072 98.3952
-86.177 98.2303
-82.8391 97.5646
-84.5741 -98.4851
-82.5301 -98.0037
-77.352 -97.9727
-77.0984 98.5388
-75.9749 -98.7864
-73.2662 97.9977
-71.8021 -98.7838
-67.6929 98.0921
-66.8221 98.8451
-65.1234 -98.4898
-64.4288 98.6747
-62.1477 98.8627
-60.1126 98.7509
-58.6931 98.4757
-55.3517 -97.5282
-53.2114 -98.2967
-52.379 -97.3743
-51.0622 98.9843
-48.4134 -98.4321
-44.9859 -98.1181
-42.2263 98.3387
-41.538 -97.3246
-39.4338 -98.9231
-37.9753 98.2593
-36.7955 98.9626
-33.016 -98.7423
-31.8395 -98.5307
-31.2561 97.8851
-26.9763 -98.653
-25.1991 -98.7333
-22.7113 -98.6647
-20.9972 -98.3166
-20.0143 -98.0948
-17.6097 98.6215
-16.495 -98.0043
-14.624 98.9667
-13.4809 98.1434
-10.5442 -98.417
-8.65971 -98.1719
-7.20177 -98.7833
-3.0994 98.3441
-1.06815 98.3919
0.171301 97.5554
2.02457 98.6932
5.45868 -98.6376
6.87321 -98.7315
7.08829 97.225
8.52416 98.9083
10.8898 -98.2047
13.4572 98.801
15.5417 -98.6755
16.9931 98.4729
20.5544 -97.6331
23.0327 98.0514
23.817 -98.4932
25.7294 98.0901
28.3857 98.9476
30.236 -97.9672
32.4441 97.9143
33.8407 -98.9188
35.9316 98.5247
38.3682 97.8908
40.438 98.078
40.3153 -97.9302
43.6249 98.3277
44.1833 96.9521
46.8722 -98.64
50.2918 98.9815
52.8861 -97.7326
52.9901 98.6741
54.9838 98.7003
57.2131 98.8785
59.0533 98.3985
61.1471 97.9717
63.0339 -97.3331
64.2687 -97.9458
67.3602 98.7415
70.305 -98.5098
72.3756 -98.4019
72.5296 98.3636
75.2419 98.05
78.607 -97.9398
78.9357 98.458
80.0549 -98.3694
83.1676 97.5774
83.799 98.3975
87.5626 -98.4504
88.7287 98.3894
90.2959 96.7841
93.0038 -98.4988
94.2946 98.596
96.1638 -98.8434
-98.9045 -96.5586
-96.0184 -97.4811
-94.5302 -97.2339
-92.6765 -96.87
-90.2444 -97.6255
-88.2388 -97.1473
-85.7195 -97.0861
-84.6202 -97.3547
-83.0689 -98.8714
-82.3179 -96.7493
-79.366 -97.1954
-75.8916 -96.4941
-74.8928 -97.908
-74.3236 -96.4731
-71.6949 -97.0302
-69.5984 -97.0852
-68.1831 -97.7709
-65.5623 -97.554
-62.698 -97.31
-61.8162 -98.1685
-59.5487 -97.9031
-57.6387 -95.6745
-55.5488 -96.1361
-53.3358 -96.3061
-52.0857 -96.0036
-51.2278 -97.1237
-47.2526 -98.5418
-45.7655 -97.1477
-43.2227 -97.5542
-42.1765 -96.3965
-40.2519 -98.1167
-36.9958 -98.0403
-34.6925 -97.4282
-33.9455 -95.8822
-31.0913 -97.5803
-29.9655 -97.2926
-26.3384 -95.8247
-24.9647 -97.0015
-23.3802 -97.7533
-22.1818 -96.3169
-19.429 -96.3354
-17.8163 -96.5691
-16.1747 -96.4452
-13.636 -97.1294
-10.2573 -97.4175
-9.22271 -97.2075
-7.97425 -96.1882
-6.12444 -97.2401
-4.51746 -95.9759
-1.56333 -98.0366
-0.387096 -97.1953
2.84606 -98.2436
4.37308 -96.5795
6.31004 -97.1486
8.61774 -96.9134
10.1159 -96.3683
12.5897 -98.4032
13.558 -97.7458
16.4906 -95.5509
17.2622 -97.5047
18.4872 -96.6943
22.4461 -96.8974
23.1263 -96.0836
25.3467 -97.5994
29.1995 -97.7985
29.9219 -96.4265
30.9394 -96.9351
32.6143 -97.4691
34.6354 -97.2272
37.9729 -98.6359
39.0617 -96.9233
42.2884 -98.5661
43.4781 -97.0443
44.2562 -98.3713
49.928 -96.721
49.8643 -95.2759
51.0511 -96.413
53.4733 -96.3787
54.1902 -97.4557
57.488 -98.0711
58.8609 -97.1927
61.5439 -96.3396
63.9667 -96.538
64.8821 -97.07
67.6715 -96.4817
69.1507 -97.0705
70.4928 -97.1338
74.3659 -97.3974
75.3842 -97.2847
76.465 -96.7631
79.0052 -96.3998
81.8335 -97.4398
84.1852 -98.2374
83.3535 -95.4388
84.9138 -97.1261
88.3615 -97.304
89.5566 -97.0911
94.9398 -96.8185
96.0472 -96.7288
96.8237 -97.5708
-98.7272 -94.6045
-97.1769 -95.3712
-95.6466 -95.0441
-92.6828 -95.0311
-91.4299 -95.5685
-90.611 -94.8832
-88.3293 -93.7648
-85.5344 -93.9634
-84.1873 -95.1363
-81.5441 -94.751
-80.9067 -96.5913
-78.6798 -94.8039
-72.0044 -94.575
-73.103 -96.4628
-71.0112 -96.1718
-71.411 -93.6554
-67.0942 -93.568
-65.3058 -94.7485
-64.0477 -96.0895
-61.8292 -96.4761
-59.0497 -96.6222
-56.485 -95.4146
-55.8812 -94.4962
-54.418 -94.4327
-50.7033 -95.5371
-48.1361 -96.7256
-47.5133 -95.0549
-47.2987 -97.307
-43.3638 -95.4154
-42.4211 -95.0125
-41.4477 -95.2547
-36.048 -97.4733
-35.5064 -95.1773
-32.6109 -92.6954
-30.8647 -95.5777
-29.1541 -95.0635
-27.5451 -94.6047
-26.0792 -94.8274
-24.5346 -94.8172
-21.7748 -95.1492
-20.0611 -95.1935
-18.6613 -94.7353
-16.5886 -94.0086
-14.886 -95.4077
-11.6116 -95.1425
-9.50578 -94.8994
-8.17078 -95.1949
-5.45464 -95.4041
-2.35388 -95.0712
-3.12958 -93.8461
1.43869 -93.6289
2.76974 -96.6618
5.69904 -96.343
6.68578 -96.1295
6.55888 -94.0058
10.7449 -93.4465
12.9438 -96.9097
14.665 -94.4849
15.9189 -94.5827
18.7108 -94.6472
19.7214 -93.1275
23.4512 -95.0134
24.43 -95.6145
25.2992 -96.301
27.1461 -95.1424
30.459 -93.942
31.9596 -93.9011
34.451 -95.0232
35.7541 -96.4294
36.2963 -95.1844
39.4964 -93.706
42.256 -96.3268
43.5037 -94.9809
45.276 -94.6482
47.0106 -96.2961
50.0976 -93.4869
52.4185 -95.8574
53.8949 -95.4261
55.0679 -95.646
57.5293 -95.4426
60.5499 -95.9911
61.8825 -95.2375
63.6571 -94.9954
65.1188 -94.8598
68.5961 -95.4133
69.5945 -94.9501
70.9646 -94.8838
73.6635 -95.8537
74.8301 -95.7619
77.7198 -95.3681
79.8693 -95.2899
81.7718 -94.7554
83.4919 -93.8729
85.043 -95.0897
87.976 -95.9216
88.4535 -93.8865
92.7146 -94.3511
92.524 -95.5717
96.2682 -95.2535
97.4174 -94.4817
-98.3465 -93.1019
-97.4252 -92.5808
-95.1504 -93.069
-94.0208 -94.0671
-90.2798 -93.2639
-88.0506 -92.3781
-87.0006 -94.7044
-87.0748 -93.6613
-82.7222 -94.1219
-81.6521 -93.0289
-79.7261 -93.068
-77.5175 -94.2919
-75.9763 -92.4859
-73.7971 -93.8603
-72.2508 -92.9747
-70.5799 -92.6437
-68.4718 -92.6821
-65.011 -92.3382
-63.1951 -93.4352
-61.7921 -92.5599
-60.2492 -91.0197
-58.661 -93.4335
-54.495 -93.1908
-53.1267 -92.4002
-53.3257 -94.6973
-49.9279 -93.368
-48.8775 -93.0148
-44.1511 -94.4215
-42.6957 -92.6984
-41.5979 -91.9433
-40.3365 -92.4221
-37.9003 -93.6001
-36.8669 -92.9519
-34.936 -94.1058
-31.8776 -91.8702
-30.1998 -91.3439
-27.0409 -93.3587
-25.5023 -93.6621
-24.0023 -92.2071
-22.2767 -93.2364
-19.8027 -93.5586
-18.0021 -91.7294
-15.7559 -93.2887
-12.6299 -93.4172
-10.9615 -92.5336
-10.0506 -92.977
-8.4886 -93.0335
-5.73035 -93.0384
-2.6021 -91.8296
-1.68994 -93.6111
-0.650797 -92.7668
1.57365 -92.4551
4.71585 -94.08
5.41698 -92.0207
8.44822 -93.5699
9.51315 -93.2434
11.7681 -93.2422
14.4943 -92.189
15.5498 -93.6085
18.0458 -93.3566
21.2139 -92.4862
22.2446 -91.9411
24.6598 -93.7078
25.9961 -92.5544
28.1053 -91.6328
29.4324 -92.1482
31.1256 -92.2293
32.5115 -92.6934
34.5766 -92.834
37.0579 -92.9859
40.3218 -91.8426
41.4247 -92.2028
42.8883 -92.1596
43.6979 -93.9932
46.8631 -94.018
48.8938 -94.1709
51.5054 -91.9789
52.808 -93.5628
54.7782 -93.1749
56.0695 -92.1156
60.4894 -91.9303
59.9352 -94.7613
62.6109 -92.4322
63.3847 -93.6362
67.7892 -93.454
69.7777 -92.7833
72.7581 -93.6432
71.4505 -92.4385
74.8025 -91.8599
76.0703 -92.4595
79.1203 -92.3404
81.6872 -93.5444
83.905 -91.9449
84.4166 -92.8162
87.8963 -91.7616
90.2241 -92.8383
91.0033 -93.9401
91.4453 -91.5804
94.9212 -94.9774
96.3316 -92.9882
97.7569 -92.2337
-95.8548 -91.0524
-95.1607 -91.9384
-93.006 -91.5156
-90.3817 -90.4865
-87.0677 -92.0953
-87.1986 -90.3353
-85.6227 -92.2697
-82.9567 -91.1825
-80.4692 -92.0198
-79.8898 -90.6055
-78.9796 -91.0118
-77.1835 -91.7414
-74.4112 -90.9092
-70.8266 -90.0219
-69.7019 -91.8042
-65.3085 -91.1571
-63.9647 -90.163
-63.3107 -92.295
-61.6001 -89.92
-60.1732 -89.9782
-57.2432 -91.5904
-56.1123 -90.7778
-54.2456 -91.7009
-52.5408 -90.1385
-49.0923 -90.6383
-46.9565 -90.8868
-45.7272 -91.1132
-44.0123 -92.7435
-41.0336 -90.9508
-39.6756 -89.2733
-38.1875 -90.1195
-35.2739 -89.6893
-33.7616 -91.525
-32.5643 -90.9835
-28.4682 -92.7684
-27.9596 -91.2603
-25.4738 -90.9867
-23.3698 -90.2636
-22.2631 -92.1999
-20.8342 -90.6265
-18.4904 -90.1188
-16.1574 -91.191
-14.8268 -91.1289
-12.9962 -91.9837
-10.4395 -90.1458
-7.95038 -90.9664
-7.0454 -90.5364
-4.66817 -92.5215
-2.12083 -90.6146
-0.345624 -91.1734
2.57479 -91.95
2.80648 -90.0526
6.07122 -90.1158
8.21457 -92.0136
10.1541 -91.2681
11.843 -90.2847
14.2634 -89.1819
15.5438 -91.2086
17.6513 -91.0038
19.4807 -92.1461
22.7821 -91.0154
24.6944 -92.2369
26.9833 -91.4881
26.4837 -90.0799
29.8717 -90.7302
32.5671 -90.8579
33.047 -89.9478
36.168 -90.2369
37.8063 -89.9362
39.0184 -90.1646
40.4361 -90.3187
44.2479 -91.3991
45.6216 -89.1147
46.6085 -91.4741
49.2261 -90.8675
51.8999 -90.8795
55.0479 -90.0223
56.1521 -89.9185
56.7937 -91.0036
59.1744 -90.5146
62.0234 -90.7979
65.3691 -91.3096
66.3503 -90.564
66.4346 -91.9489
69.3798 -91.3926
71.6386 -91.2666
73.1246 -91.7909
74.6243 -90.1672
78.1918 -89.8873
80.3611 -91.6039
81.0272 -92.6075
81.6012 -91.3374
84.5009 -89.873
86.1262 -91.1338
89.8763 -90.9136
88.2049 -89.4219
92.3806 -91.2206
94.4877 -91.3169
96.7217 -90.7386
-98.022 -89.9723
-96.8241 -89.5347
-94.4424 -89.77
-93.7534 -88.7507
-89.186 -88.8005
-89.1795 -90.0642
-86.045 -88.8591
-86.0333 -90.2928
-84.454 -89.3859
-81.2074 -90.326
-78.0827 -89.6969
-76.8471 -89.3558
-75.5048 -89.3463
-73.4709 -89.5835
-71.2992 -89.0068
-67.812 -89.4934
-67.1332 -90.6335
-63.7726 -87.928
-62.7416 -90.3498
-61.1946 -88.8447
-59.9869 -88.5337
-58.0092 -89.1897
-54.5027 -88.6396
-53.5174 -89.702
-51.1195 -89.285
-49.9302 -88.4483
-47.9326 -89.7239
-47.1961 -88.7027
-44.3182 -89.3626
-43.0221 -88.4431
-41.843 -90.0657
-37.6425 -89.2417
-35.614 -88.3623
-34.586 -87.8047
-31.6638 -89.0529
-30.1552 -88.8777
-27.0537 -89.1055
-24.9241 -87.5765
-25.0762 -89.5963
-22.0675 -90.4279
-19.1659 -91.8659
-16.2011 -89.9745
-14.7191 -89.0445
-13.7785 -90.1944
-11.7507 -88.7947
-10.0389 -89.0765
-7.90293 -88.2152
-4.67846 -89.4704
-2.89205 -89.6361
-1.54365 -89.7629
1.26007 -90.3213
1.83687 -89.308
4.00932 -90.0652
6.47244 -89.0184
7.29044 -89.6247
9.01545 -89.6731
10.4489 -89.4412
14.7485 -88.227
15.7211 -89.3926
17.7209 -89.4238
18.9483 -89.1437
21.2417 -90.6573
24.2346 -89.8287
25.1495 -88.612
27.3882 -89.143
29.7355 -88.5344
31.5117 -89.8174
32.5375 -88.2032
34.5075 -89.2012
37.3355 -88.5241
38.6174 -88.4998
41.5142 -88.9117
44.1061 -87.9419
47.5497 -87.074
46.9928 -89.6712
49.8895 -89.3371
52.8585 -88.1903
54.4701 -88.8425
56.7168 -88.52
58.0595 -89.5316
59.5734 -89.2383
60.7153 -89.1598
64.3532 -90.0957
65.4507 -89.9338
66.5605 -89.3918
69.0155 -87.7081
69.8987 -88.1892
71.5043 -89.0406
75.2424 -85.9762
76.708 -89.7143
77.6967 -88.5252
80.6492 -88.3533
82.2876 -90.2804
82.3604 -88.6261
85.7973 -89.9303
90.3213 -88.8425
91.1808 -89.8596
92.4434 -88.618
95.2676 -87.9879
96.6796 -89.118
98.9387 -88.1251
-97.6811 -87.5026
-96.389 -86.3442
-93.9405 -87.6868
-91.1429 -86.182
-88.9043 -87.7938
-86.6375 -87.4848
-85.4708 -86.9497
-82.5142 -87.7094
-79.7934 -89.0523
-78.0185 -87.9557
-76.6166 -87.2129
-74.1808 -87.3831
-72.8992 -87.7711
-71.3252 -87.8282
-70.2462 -87.6569
-67.0404 -86.4437
-65.162 -87.8514
-63.1679 -86.9851
-61.2142 -87.6063
-58.3775 -87.4424
-57.1302 -87.4094
-54.3463 -86.1437
-52.9492 -86.1884
-52.322 -87.748
-49.5346 -87.2003
-47.9136 -86.5325
-46.0833 -88.9011
-44.5872 -87.0774
-40.0583 -86.9169
-37.6028 -85.9896
-36.9475 -86.8182
-36.6491 -88.5137
-34.7512 -86.6647
-30.6271 -86.37
-29.3815 -87.9776
-27.6257 -88.2532
-25.3622 -86.032
-22.6238 -86.8713
-21.283 -86.577
-20.2592 -86.5103
-19.9915 -88.043
-17.2366 -87.0533
-13.2025 -88.388
-11.7386 -87.081
-10.4805 -87.7866
-6.99754 -86.6524
-6.21067 -88.0814
-4.38196 -87.4201
-2.19526 -86.9778
-0.551464 -86.2395
3.23413 -86.0549
6.32465 -87.5164
8.09781 -87.2747
8.72479 -85.4589
9.77505 -87.7435
12.7619 -88.7567
14.1325 -86.8306
16.3518 -87.0584
18.6748 -86.5297
20.2533 -87.3962
22.2819 -86.4732
23.6787 -87.5599
26.2064 -86.2082
25.8286 -87.304
28.0356 -87.7381
31.2142 -86.6939
33.5975 -87.3926
35.6603 -86.1599
36.5308 -87.8519
39.0491 -87.4937
42.2604 -87.4442
43.3206 -87.2213
45.3707 -87.1394
48.9317 -88.858
48.549 -87.0439
51.7885 -85.7972
55.0446 -86.0095
55.8614 -87.3853
57.1064 -87.1531
58.0925 -86.9287
61.0512 -87.7219
63.5293 -87.2405
65.218 -88.4097
66.6364 -86.9746
69.1563 -86.4611
71.5611 -85.6994
73.6601 -87.0336
77.2408 -87.5586
77.7359 -86.6569
80.2726 -86.3938
81.8801 -87.5011
83.1469 -87.3112
84.3298 -86.5195
85.9385 -88.7089
90.0102 -87.3843
90.9427 -85.5489
92.9655 -86.8981
95.5387 -86.8853
97.4971 -87.3716
97.7089 -85.0058
-98.4648 -86.1526
-95.3993 -84.6236
-93.0549 -86.0879
-89.7924 -87.2397
-89.0163 -86.4923
-87.5456 -84.6325
-85.2711 -84.76
-83.0616 -84.97
-80.3865 -85.3717
-79.1582 -86.3174
-76.5309 -85.5889
-75.2955 -86.7187
-71.9207 -86.3892
-71.1312 -85.4416
-69.1878 -85.2313
-68.592 -86.1008
-65.8984 -85.0575
-63.5316 -84.8477
-62.0016 -86.6969
-59.1325 -85.4037
-57.3042 -85.0419
-54.2646 -84.7175
-52.1401 -85.1321
-50.2579 -85.2251
-51.1925 -87.7903
-47.4263 -85.6337
-45.1913 -84.5703
-43.7785 -84.3882
-40.4958 -85.6229
-39.1511 -85.3196
-37.9824 -84.8759
-35.4303 -83.863
-33.2068 -85.2203
-32.527 -84.4858
-27.8591 -85.2573
-28.1271 -83.5194
-24.944 -84.9789
-23.8115 -85.0564
-22.0174 -85.3003
-19.9067 -85.2433
-18.6714 -86.5988
-16.2443 -84.9683
-14.5745 -84.5372
-12.2518 -84.9525
-10.6162 -85.5768
-8.11338 -86.0813
-3.93485 -86.3429
-3.94281 -84.9183
-1.85676 -85.0574
0.0888524 -85.4271
1.31611 -85.6596
4.1235 -86.5796
4.38152 -85.3461
7.09586 -84.3808
9.94165 -86.011
12.335 -86.4545
13.2957 -85.8226
15.3508 -86.1203
17.4622 -86.0526
21.0753 -85.12
22.2354 -84.9767
23.594 -85.0538
25.2377 -84.2892
28.3501 -85.7558
29.2212 -86.7403
33.3333 -85.1744
34.3295 -85.6475
36.3931 -83.1572
36.9439 -84.9508
39.8866 -84.8488
41.043 -84.7735
42.8406 -85.3094
45.3629 -84.3387
46.386 -84.9281
49.1179 -85.2273
50.8572 -85.0514
52.9279 -85.763
54.4703 -84.4977
56.1366 -84.4937
60.4574 -84.789
61.4967 -84.432
64.6323 -85.8769
65.3377 -84.9827
66.5448 -85.6394
68.0866 -84.4005
69.8088 -85.3991
72.0112 -84.6729
74.8903 -84.4835
77.5165 -85.2704
78.7576 -84.8958
80.6741 -85.142
83.404 -84.8178
84.622 -84.9559
86.3962 -85.4219
89.3003 -85.6038
90.3908 -84.0372
92.5028 -85.4241
94.2146 -84.9604
95.848 -84.7873
-97.9709 -83.2424
-96.7797 -83.2889
-96.0016 -82.5348
-91.4287 -82.2274
-92.0224 -84.4707
-90.7126 -84.0267
-86.406 -84.2904
-83.9971 -82.8253
-83.0643 -83.2341
-79.8236 -84.3194
-80.7592 -82.0665
-77.4636 -80.9728
-77.712 -83.1914
-72.2897 -83.4917
-70.681 -83.1447
-69.2545 -83.3129
-67.6563 -83.5349
-66.7754 -82.7963
-64.469 -83.8227
-63.1437 -83.913
-59.632 -83.2113
-58.1776 -81.6409
-54.8572 -83.2693
-53.8552 -83.1393
-51.3211 -83.316
-49.3217 -84.7841
-46.5993 -83.5491
-45.3797 -83.4341
-42.9113 -83.0623
-41.5892 -84.9052
-41.6985 -83.6381
-37.2895 -82.915
-35.17 -82.5327
-34.161 -83.6346
-31.889 -82.7205
-30.4361 -83.516
-26.819 -82.3718
-26.2969 -83.7449
-24.3877 -84.0821
-24.0179 -81.7848
-18.3471 -82.3862
-17.1578 -84.3535
-15.5685 -83.5479
-15.0451 -82.5402
-11.8819 -81.9591
-11.2262 -82.9996
-8.33858 -82.5199
-4.79824 -82.4593
-3.95733 -83.5219
-2.80085 -82.5494
0.457583 -83.5886
1.62971 -82.6389
3.94647 -82.5324
6.03124 -82.7036
7.48979 -82.9318
10.4267 -83.5633
11.2828 -84.7591
14.6963 -82.8688
16.106 -83.2872
17.3902 -83.0304
20.7438 -82.1388
23.0815 -83.2543
24.4881 -82.6347
26.2411 -83.3147
27.8114 -84.0886
30.1892 -83.6003
31.6669 -83.0915
32.6396 -82.701
34.729 -82.8857
37.0648 -82.2828
40.9075 -83.1737
42.3241 -81.7024
44.2634 -82.759
46.0731 -83.6042
47.6677 -83.9145
48.6908 -84.1198
50.9524 -83.1834
53.04 -83.8456
55.9819 -82.8365
57.6683 -84.3039
59.3219 -81.1477
63.0987 -83.6385
63.971 -83.1439
65.0553 -82.9572
66.9919 -84.394
69.1645 -84.3493
72.6384 -83.6598
73.7348 -83.512
77.2073 -82.6444
77.7961 -84.0777
79.5037 -82.0555
81.6925 -84.497
82.7635 -82.8912
84.1306 -83.3211
86.2644 -83.8326
89.0397 -83.5905
90.313 -83.0009
91.8888 -83.7688
94.4418 -83.9279
96.8878 -82.8274
-97.5057 -80.8286
-96.236 -81.099
-94.5595 -80.2878
-91.8491 -80.8455
-90.5772 -80.13
-88.4537 -80.5428
-86.2682 -80.4274
-84.3726 -81.523
-82.8173 -80.7824
-81.6746 -79.6563
-80.0469 -80.7613
-78.4509 -80.0661
-73.6892 -81.5695
-72.4488 -82.2965
-72.1942 -80.3204
-68.8354 -81.0058
-68.4325 -82.3192
-66.1134 -81.4596
-63.3942 -82.3796
-61.7695 -81.6659
-59.0625 -80.9367
-57.8658 -80.2791
-56.4015 -82.236
-53.5245 -80.2499
-52.8411 -82.7457
-48.8312 -82.496
-47.015 -82.1426
-45.7269 -81.3457
-44.7063 -80.7402
-42.9369 -81.419
-37.8791 -80.6041
-40.9164 -81.7959
-36.4984 -81.6421
-32.9182 -81.4899
-31.8669 -81.1229
-30.6247 -81.8239
-27.898 -79.9696
-26.4901 -79.5646
-23.2166 -80.7062
-22.2497 -80.9889
-20.386 -81.8877
-17.6284 -81.5304
-15.9055 -81.6307
-14.5019 -80.1714
-11.5305 -80.0928
-9.52264 -82.9844
-7.53325 -81.4838
-6.53272 -80.8306
-3.65516 -81.6835
-2.54451 -81.5689
0.66779 -80.5365
2.37962 -81.7913
3.92031 -81.3523
5.42415 -81.5435
8.80733 -80.3058
9.53515 -81.3058
11.6377 -81.3906
14.1431 -81.132
15.5129 -81.3963
17.2593 -80.6015
18.8071 -79.3654
22.2532 -81.5958
23.5927 -81.9212
24.7634 -80.6974
26.5074 -81.1468
30.238 -80.187
31.3526 -81.9056
33.6502 -81.3625
34.8863 -81.537
36.2586 -81.5098
37.9939 -80.7576
42.4797 -80.7068
43.2342 -79.945
45.6363 -80.1196
48.0605 -81.652
50.5837 -80.3263
50.6323 -81.7945
53.1333 -82.3633
55.4732 -80.111
58.0403 -79.34
58.214 -81.0845
61.8668 -81.1005
63.3119 -81.664
64.9283 -81.5828
66.9702 -80.3317
70.3034 -81.5468
70.5351 -82.8627
72.7748 -81.6669
74.39 -82.2935
78.2427 -81.5804
78.7479 -80.5027
80.6606 -81.1081
83.7433 -81.5213
85.9543 -82.0101
87.5909 -82.2858
89.8758 -81.8315
89.8244 -79.4852
93.0307 -82.1023
94.6262 -81.5704
97.8897 -81.1971
-97.9656 -78.4924
-97.0989 -79.5559
-95.4179 -79.3076
-92.4607 -78.1417
-90.7247 -79.1268
-89.6915 -79.1954
-88.3951 -79.0765
-86.0056 -78.5558
-83.8698 -78.8432
-80.1054 -79.2169
-78.7923 -78.941
-77.3066 -79.2566
-75.1065 -78.8761
-73.6049 -79.6397
-71.1132 -80.0897
-69.736 -79.4472
-67.5695 -79.7663
-66.4218 -80.0074
-62.1599 -78.7963
-62.1247 -77.4545
-59.9943 -78.9113
-58.4062 -78.7505
-55.1261 -81.0103
-53.431 -78.4411
-51.6322 -80.105
-48.8798 -80.4015
-47.6517 -78.8502
-44.5585 -78.7256
-43.9214 -79.716
-41.0627 -78.816
-39.3042 -80.1738
-38.5424 -79.1633
-35.5933 -78.3354
-33.7208 -78.3677
-31.9633 -77.3411
-29.1444 -81.1844
-27.9894 -78.7422
-24.9817 -78.1578
-22.9789 -78.7311
-21.8733 -80.0239
-18.214 -78.7907
-18.3333 -80.1616
-17.1714 -78.2464
-15.2748 -78.0076
-12.6445 -79.9465
-10.5568 -79.7448
-9.4291 -80.3733
-6.63891 -78.7154
-5.38627 -79.7198
-2.461 -78.079
-0.286263 -78.9309
0.91643 -79.2184
4.49831 -78.1256
5.92013 -80.0452
8.87855 -78.9268
10.1581 -78.6018
11.8618 -79.6892
13.1341 -78.3438
15.3057 -79.5453
17.5935 -78.6716
20.4455 -77.9722
21.5704 -79.0377
24.0832 -79.2133
26.789 -79.4716
29.046 -77.8448
31.0604 -78.9131
31.7385 -80.5594
33.2554 -80.1009
36.5267 -78.6256
36.926 -80.6164
38.4784 -79.1993
41.9893 -79.4564
44.0978 -79.4502
46.467 -79.0145
47.6408 -78.3907
48.4636 -76.9731
53.0594 -80.2852
53.6191 -76.7576
54.695 -78.971
55.7429 -78.9508
59.5383 -79.8968
62.1486 -79.6473
64.2466 -78.5958
65.354 -80.4801
67.6069 -78.7322
68.3861 -79.4084
70.8595 -80.04
73.9876 -80.9727
75.1004 -80.9418
77.7312 -79.8738
80.0457 -79.4706
81.0311 -78.0886
83.8809 -79.6424
84.6413 -80.436
87.8477 -79.5987
88.7039 -78.2417
92.8526 -79.2037
94.4 -80.2845
96.0574 -79.9703
97.7118 -78.6769
98.7471 -78.7743
-96.0783 -77.7694
-94.8472 -77.7321
-93.552 -78.0263
-91.0856 -77.6461
-89.7148 -76.6056
-86.754 -75.9347
-85.4413 -76.5051
-83.6583 -76.8761
-80.4127 -76.5435
-79.1716 -76.9255
-76.7147 -77.8817
-73.587 -78.1394
-73.7147 -76.8226
-71.6485 -77.4237
-69.143 -77.9259
-67.8754 -78.4671
-65.7778 -77.2124
-63.8485 -77.8167
-61.2172 -76.4346
-58.5648 -76.7826
-57.6592 -77.2154
-54.3435 -77.6787
-53.1472 -76.0606
-52.382 -78.0848
-49.1781 -76.7725
-47.3866 -77.8845
-46.6971 -76.9478
-42.6738 -77.8901
-40.9808 -77.7462
-39.713 -77.1877
-38.541 -77.4972
-36.174 -76.8374
-34.5682 -76.735
-31.7477 -76.3481
-29.4867 -78.0379
-27.4781 -77.3716
-25.9513 -77.4884
-23.9547 -76.1393
-21.9203 -78.4934
-20.5271 -77.7682
-18.4109 -77.6957
-16.3237 -77.1577
-15.1607 -75.8644
-11.2664 -77.1532
-10.0291 -78.2845
-7.26987 -76.5718
-5.18443 -77.3158
-4.10211 -78.0133
-1.26843 -76.358
1.29877 -76.9701
2.42687 -77.1623
6.62878 -75.728
5.74727 -78.29
9.20603 -77.6946
10.1799 -77.2431
11.9086 -77.809
15.2147 -76.3713
16.6452 -78.2883
18.6704 -76.9637
19.0145 -78.2862
20.5761 -76.1941
23.7381 -76.3643
26.5821 -77.9455
27.6598 -76.8606
29.9675 -77.3606
33.7235 -77.9224
34.8725 -77.3715
36.341 -76.79
39.1712 -76.6334
39.9032 -78.5799
42.5228 -77.5437
45.0747 -76.8343
45.754 -77.8425
46.2751 -76.2898
50.7228 -78.1492
51.7412 -77.7793
51.8194 -76.06
55.7937 -76.2069
56.4006 -77.3362
58.4723 -77.9468
61.7381 -78.5171
63.7702 -75.3814
64.8774 -77.0666
65.474 -78.1709
67.8265 -77.1051
70.9873 -76.6651
72.8722 -76.5238
75.9546 -77.6541
78.6787 -75.3024
79.8527 -77.3939
81.4802 -76.4047
83.5682 -76.5605
85.9724 -77.4101
87.1678 -74.5428
87.6138 -78.2351
90.8015 -77.7181
92.02 -78.2755
95.085 -77.4413
96.7208 -77.6007
97.3643 -74.607
-97.6652 -76.8225
-95.1802 -76.1933
-93.6493 -75.084
-91.0461 -75.5611
-90.3105 -73.9345
-86.8607 -74.5083
-84.9562 -75.2162
-83.8729 -74.4508
-80.4414 -72.9006
-77.4483 -75.1377
-74.974 -75.2594
-74.008 -74.5598
-72.7662 -76.3891
-70.5822 -75.2617
-68.6821 -75.9743
-67.8815 -74.3203
-66.4098 -75.8809
-63.1901 -73.8628
-62.2012 -75.1786
-61.1896 -74.6882
-56.8528 -76.4528
-55.5987 -77.5503
-54.3737 -76.2987
-51.2945 -75.7184
-49.43 -74.7871
-46.7207 -75.8019
-45.2145 -76.4125
-42.2268 -76.0935
-40.3626 -75.9434
-38.4679 -74.9698
-36.6434 -75.7797
-35.5078 -74.2364
-34.8245 -75.466
-32.3335 -75.2908
-29.3134 -75.9719
-28.0709 -74.4284
-27.3202 -76.0259
-23.7875 -74.2283
-21.8355 -74.5812
-20.1344 -75.1356
-16.7653 -75.1267
-15.366 -74.0208
-14.0989 -74.4866
-11.7815 -75.3175
-10.0647 -74.419
-8.69265 -76.6834
-5.54923 -76.2949
-3.30156 -77.3376
-1.77678 -74.8332
0.047242 -74.5987
1.89385 -76.0583
4.79904 -74.6017
6.10435 -74.5929
8.221 -74.6246
9.68792 -75.8643
12.6104 -76.0174
14.2557 -76.021
15.9654 -75.4299
19.4104 -75.7221
19.4051 -73.6796
20.9043 -73.9355
22.6343 -74.4873
26.4509 -73.6137
28.4153 -74.5246
29.6437 -75.9415
32.6363 -73.5042
33.1324 -75.8807
35.1772 -75.7441
37.6442 -76.1406
40.464 -76.6619
41.5795 -77.1772
43.6001 -76.4838
45.2717 -75.5037
46.8078 -75.2737
49.767 -74.1362
50.5679 -75.5032
52.908 -75.7086
56.0927 -75.0176
57.8662 -75.4658
59.6997 -75.5656
61.5447 -75.8559
62.5893 -74.6308
65.4921 -74.6014
66.9069 -75.2637
68.6713 -75.2302
70.5033 -75.5731
72.5628 -75.5227
76.2195 -76.1761
77.4707 -75.7481
80.1645 -76.079
80.9023 -75.0718
82.4021 -75.9814
85.4353 -75.3384
86.001 -73.9807
88.9037 -75.7756
91.0027 -74.9041
94.0602 -75.3358
95.3811 -75.1912
95.66 -76.2085
-98.2494 -72.6009
-97.3145 -73.2512
-94.066 -72.9256
-92.747 -73.4377
-90.8362 -72.6758
-88.3403 -74.1314
-86.1119 -73.7836
-85.068 -72.827
-82.842 -72.7761
-81.6426 -72.7486
-78.7454 -75.2013
-78.833 -72.2718
-75.2887 -73.656
-74.4476 -72.0832
-72.5538 -73.02
-70.8518 -72.7054
-69.3589 -72.4907
-65.9592 -74.744
-63.3713 -72.683
-59.9546 -72.853
-59.4009 -74.6408
-57.6301 -75.1338
-55.8628 -75.7081
-53.2891 -71.969
-50.6987 -72.8353
-48.7415 -72.8474
-46.2994 -73.4834
-45.0044 -74.1178
-42.9957 -75.1635
-40.9738 -72.6182
-39.3402 -72.5188
-37.1847 -74.1375
-35.6578 -72.7758
-34.1783 -73.8347
-31.0575 -72.0878
-30.2492 -73.1915
-28.3675 -72.9029
-26.2795 -74.2133
-22.3587 -70.9224
-22.7676 -71.9829
-21.3072 -73.4025
-17.4565 -72.2223
-16.2787 -73.1141
-14.8544 -73.0677
-11.3121 -73.9574
-10.5071 -73.0564
-8.32453 -73.2498
-7.01717 -73.9146
-2.62999 -71.9607
-2.51983 -73.5474
-0.896874 -73.5808
0.568981 -71.859
3.18907 -72.65
6.23871 -72.6546
7.43625 -71.2428
9.33904 -72.773
11.3211 -74.2146
14.5402 -72.9462
15.4089 -73.6645
18.2409 -74.0912
20.7726 -72.2234
21.7734 -73.3172
24.2228 -73.7447
25.2808 -73.3983
27.8318 -73.0961
29.5696 -73.707
32.627 -72.339
33.7739 -72.4705
34.3964 -73.4506
38.2927 -75.0559
37.0654 -72.8276
41.8926 -74.5734
43.2703 -74.7904
44.5225 -73.5117
46.805 -73.9838
50.4634 -73.3801
53.2102 -72.7994
53.5922 -71.6191
54.274 -72.9619
56.2293 -73.2239
59.53 -72.683
59.5378 -74.211
63.9415 -74.3222
64.3715 -73.3631
65.7645 -72.8549
69.5545 -72.338
71.0618 -73.5445
73.7565 -72.5724
75.1954 -72.868
76.416 -73.3702
78.501 -72.9636
80.8425 -71.1149
81.9842 -72.9719
85.4243 -71.4359
86.3784 -72.5701
88.0879 -72.6643
90.8479 -73.4754
93.2259 -72.3867
94.4541 -74.1843
96.4321 -72.4707
-98.667 -70.9546
-97.4049 -71.611
-94.4167 -71.9348
-92.9065 -70.9605
-90.9308 -70.864
-88.2563 -72.2842
-86.7457 -70.3386
-84.7175 -69.926
-82.3009 -70.8048
-81.0057 -70.2081
-79.477 -70.6358
-78.5934 -71.1719
-77.3766 -72.0849
-73.1288 -71.8345
-70.6356 -71.1845
-69.3138 -71.4058
-67.81 -70.6584
-64.8299 -71.2498
-63.3168 -71.1696
-62.343 -70.6205
-60.1071 -71.5142
-56.546 -71.479
-54.7668 -72.7041
-53.9949 -71.249
-52.2349 -72.3117
-50.5628 -71.2057
-47.2421 -72.7846
-45.0055 -71.963
-44.2524 -73.2794
-42.0311 -72.0203
-39.3456 -71.228
-38.1746 -71.1405
-36.903 -71.3004
-33.1393 -70.4272
-30.1856 -71.1999
-29.8973 -72.2482
-26.9764 -71.3359
-25.4635 -71.8723
-22.5913 -69.0403
-21.1553 -71.7592
-20.2456 -72.3617
-18.5726 -70.3361
-16.4243 -70.9761
-14.5097 -70.6016
-12.2431 -71.7912
-10.6322 -71.6363
-6.88319 -71.6959
-5.64541 -71.7631
-4.48843 -72.3295
-1.57321 -72.4293
-0.0054916 -69.4121
1.27864 -69.8552
3.83557 -71.5653
5.40977 -70.9276
6.73269 -69.8234
10.5756 -71.0497
11.642 -70.601
15.8848 -70.8905
16.9553 -72.1514
17.2053 -70.4903
21.019 -71.1185
22.603 -72.2209
22.1434 -70.1526
26.0301 -71.3495
29.6768 -72.5644
30.8398 -69.6137
30.7434 -71.2529
31.7874 -71.5535
36.8983 -69.1946
38.689 -69.2985
40.3566 -73.4354
42.0334 -71.4473
43.4619 -73.1422
45.7559 -71.1334
47.9288 -70.526
48.7942 -71.3311
51.4238 -71.6457
53.0926 -70.6613
55.1805 -71.819
58.6742 -71.4674
60.0072 -71.3577
60.8914 -70.8141
64.1698 -71.8056
65.1303 -70.839
67.8284 -71.7782
68.2246 -74.1919
71.6631 -70.8672
74.2389 -71.3741
75.7826 -71.7309
78.7778 -70.8992
79.8304 -72.2791
83.2276 -72.2738
84.5223 -72.7032
85.135 -70.0424
87.625 -71.7048
88.6926 -71.7827
90.3071 -71.7465
93.424 -70.6427
95.1104 -73.2136
98.401 -71.4453
98.7938 -68.8999
-96.5112 -67.9723
-95.3306 -70.1861
-92.4465 -69.051
-90.1029 -69.7868
-88.5792 -69.7599
-86.1847 -69.1165
-84.1492 -67.7574
-81.6358 -67.3166
-82.3315 -69.0859
-81.122 -68.6364
-77.0085 -69.6337
-76.0369 -69.0705
-73.3868 -68.6291
-70.7963 -70.1937
-69.943 -69.5556
-69.3408 -68.6922
-65.993 -69.7943
-64.1258 -69.3724
-61.8279 -69.5054
-60.6694 -70.0702
-56.7479 -70.1648
-55.6887 -68.9489
-52.9929 -69.2154
-50.4978 -69.2594
-48.7877 -70.8476
-47.2269 -70.649
-46.5611 -69.7729
-43.3822 -69.6506
-41.2434 -69.6112
-39.9468 -69.0983
-36.9593 -68.8155
-34.8353 -69.3757
-32.3286 -69.579
-30.977 -69.0049
-27.5636 -68.703
-27.8356 -70.8216
-26.2306 -69.2515
-24.7425 -69.3324
-21.9648 -67.9284
-21.048 -69.5836
-18.5187 -69.2149
-17.1176 -69.3652
-14.9128 -68.4727
-13.2893 -68.5449
-11.0882 -69.7262
-7.73257 -70.2891
-4.87801 -69.1545
-5.14745 -70.1957
-3.31507 -69.4438
-2.1308 -68.7242
0.986205 -68.7392
4.16325 -70.5626
4.94803 -69.6209
9.55499 -70.2875
10.0968 -69.0463
13.6586 -69.7485
12.6997 -71.6688
16.5645 -68.5458
18.2767 -70.4113
19.8224 -70.9627
21.5697 -69.2437
23.3087 -71.0929
25.5461 -68.9679
26.6722 -68.8998
29.1758 -69.7998
32.9413 -68.3745
34.2467 -68.6093
35.5951 -68.5027
40.2349 -67.6893
40.0909 -69.9118
41.5756 -70.1459
44.8938 -69.7466
44.1607 -66.7852
46.1537 -68.9512
50.0877 -68.8857
49.7466 -70.2076
55.0472 -68.4561
55.8389 -69.2366
57.3931 -70.4143
59.4961 -68.8201
61.017 -67.3448
62.7913 -69.4092
63.9751 -69.3882
66.0885 -70.1803
70.763 -67.2343
71.9086 -69.0259
73.4963 -69.9768
75.19 -68.4735
75.434 -70.1995
77.9914 -70.2081
81.6419 -69.6529
84.1293 -70.309
84.2113 -68.9465
86.7505 -69.218
89.4549 -68.7026
91.1433 -70.6338
93.1828 -68.7399
94.3272 -69.4712
95.3521 -70.5598
98.524 -65.6629
-97.5278 -66.201
-94.5709 -68.6035
-93.6761 -67.9158
-89.6571 -68.338
-88.7617 -66.445
-87.9953 -67.322
-85.8066 -67.4698
-83.0924 -67.3693
-79.4689 -68.7541
-78.2346 -69.3442
-76.9548 -68.1665
-75.1836 -68.4032
-72.6529 -67.3694
-71.6894 -67.9886
-70.8155 -66.4633
-67.0463 -66.6504
-64.9224 -67.9179
-63.5613 -67.3312
-61.5083 -67.9929
-58.742 -66.9599
-56.7888 -68.9106
-55.9803 -66.0124
-53.66 -67.9432
-52.6114 -67.3336
-50.1912 -68.3046
-49.0058 -67.2798
-47.5474 -69.0907
-44.0039 -67.4928
-42.0167 -67.7663
-40.4381 -66.1163
-38.7807 -67.7633
-35.6263 -67.7717
-33.7331 -66.6304
-32.0184 -67.0193
-31.0826 -66.6673
-28.5799 -67.5985
-26.2732 -67.9508
-24.3992 -67.5644
-22.697 -66.2545
-21.0781 -67.4206
-18.7016 -67.1923
-16.8946 -67.7341
-12.4583 -65.9624
-11.4267 -67.0522
-9.13514 -66.9239
-8.05626 -67.7051
-5.91908 -68.2798
-4.50668 -67.1532
-2.66439 -67.5396
-0.372479 -68.2105
2.66769 -68.0303
2.5783 -66.6897
5.36875 -68.3923
7.50117 -68.21
8.89173 -67.9178
9.82372 -67.4695
14.0105 -68.2182
16.2608 -66.5547
17.6161 -68.6217
19.6237 -66.8438
21.3501 -67.3726
22.4559 -67.4713
25.4012 -67.5394
27.1941 -67.4232
28.3725 -68.4294
32.0661 -67.2607
34.4685 -67.3933
36.2575 -67.2396
38.4024 -66.8595
40.4775 -66.7068
41.2884 -67.7354
43.0293 -67.0028
46.2388 -67.3485
47.2242 -66.9952
50.3023 -67.8851
51.1501 -68.6277
53.9438 -67.7151
55.9573 -67.1247
58.0272 -66.1745
58.7723 -67.7184
61.8959 -66.2948
62.8579 -67.4185
66.1484 -66.6672
68.4003 -67.6832
69.0323 -65.396
71.5053 -67.9129
73.6023 -67.7098
74.0927 -68.9333
76.6874 -67.0539
79.0636 -69.5907
81.2119 -68.6232
82.7339 -67.5686
84.2205 -66.1423
87.7887 -66.589
87.762 -69.4641
90.7446 -67.7459
94.2032 -68.3388
96.5059 -67.1405
97.8711 -67.0691
97.1081 -66.151
-97.4831 -64.9734
-95.0238 -65.9593
-94.6347 -64.6487
-92.025 -64.1064
-90.0793 -65.7453
-87.7717 -65.0228
-84.7015 -64.1482
-80.6777 -66.3667
-79.7679 -64.6812
-79.0427 -65.9689
-77.7842 -65.9631
-74.5576 -66.0413
-73.7225 -64.2727
-71.1442 -64.6523
-69.6019 -64.7171
-68.6205 -65.7186
-64.997 -66.5721
-63.1517 -64.1279
-59.9219 -66.0612
-59.0167 -64.9739
-57.2958 -67.0623
-54.9887 -64.9173