ITEM: TIMESTEP
31600
ITEM: NUMBER OF ATOMS
10000
ITEM: BOX BOUNDS pp pp pp
-5.0000000000000000e+01 5.0000000000000000e+01
-5.0000000000000000e+01 5.0000000000000000e+01
-1.0000000000000000e+01 1.0000000000000000e+01
ITEM: ATOMS x y
49.9488 -49.7167
-48.1756 -49.6918
-47.2473 49.7283
-46.2974 -49.7148
-45.3624 49.669
-44.474 -49.8342
-43.5136 -49.3558
-42.6895 -49.9403
-41.6205 -49.3972
-40.7344 -49.9101
-39.7658 -49.4068
-38.8945 49.9706
-38.0896 -49.4101
-37.1418 -49.9745
-36.2285 -49.5507
-35.3516 -49.0712
-34.3374 -49.6144
-33.4174 -49.1226
-32.4904 -49.5463
-31.6235 49.9403
-29.75 49.4392
-29.1723 -49.5957
-28.0486 -49.6793
-27.5619 49.4072
-24.9573 -49.5434
-24.3903 49.6279
-23.2765 49.7002
-22.7247 -49.4212
-22.2548 49.6721
-21.2401 49.7095
-20.0761 49.6728
-18.977 49.6858
-17.9328 49.6703
-16.8214 49.6095
-15.7709 49.7438
-14.6667 49.7308
-13.6041 49.7722
-12.0577 -49.2257
-11.5678 49.8277
-10.9964 48.964
-9.97435 48.9435
-9.47063 47.9027
-8.84896 48.8655
-7.73351 48.9833
-6.63408 48.9462
-4.51536 48.6276
-3.53271 48.4664
-2.8874 49.4149
-1.71873 49.086
0.109991 -49.818
1.00938 49.7223
1.91142 -49.7409
2.80736 49.6954
3.7657 -49.7574
4.6534 49.801
5.55849 -49.6302
6.43648 49.8327
7.4698 49.4045
8.39338 49.9517
9.2568 49.4191
10.3111 49.887
11.2517 49.2899
12.1117 49.8689
13.0879 49.34
14.9436 49.3348
15.8422 48.7902
16.7619 49.3501
17.6084 48.7851
18.5369 49.2715
19.5007 49.8653
20.3623 49.2185
21.277 48.6229
22.2803 49.0857
23.2448 49.4082
24.1008 48.8627
24.983 49.4133
25.951 48.7454
26.7926 -49.675
27.685 49.8262
29.4446 49.8688
30.3731 -49.5884
31.3632 -49.2431
32.2097 -49.796
33.2647 49.7557
34.1955 -49.8155
35.0879 48.6022
36.1353 49.072
36.9974 48.5333
37.9079 48.9419
38.808 49.5996
39.8799 48.9356
40.7295 49.4809
41.5779 48.9176
42.5783 49.3082
43.5282 48.7941
44.3555 -49.4856
45.2684 -49.0454
46.1506 -49.5821
47.9948 -49.6098
49.0416 49.8162
-49.1101 -49.1048
-48.0979 -48.6551
-47.2098 -49.2418
-46.2655 -48.7165
-45.3532 -49.2834
-45.3541 -48.2569
-44.4578 -48.8159
-43.3946 -48.3084
-42.547 -48.9345
-40.793 -48.8365
-39.9005 -48.3547
-38.9164 -48.7208
-37.9783 -48.3567
-37.1628 -48.9727
-36.2318 -48.438
-35.2485 -48.0025
-34.3977 -48.5532
-33.3916 -48.0455
-32.5066 -48.5488
-31.6172 -48.9962
-30.2108 -49.604
-28.6341 -48.629
-27.0332 -49.6714
-26.0284 -49.5507
-25.4014 -48.6112
-24.3884 -48.5447
-23.9429 -49.4785
-23.3382 -48.5453
-21.6975 -49.3979
-20.5245 -49.378
-19.5222 -49.4678
-18.4646 -49.3953
-17.3682 -49.441
-16.3613 -49.4217
-15.272 -49.381
-14.1378 -49.2037
-13.0964 -49.2854
-11.645 -48.292
-11.0492 -49.1528
-10.5173 49.8813
-9.38631 49.8843
-8.35512 49.8093
-7.85032 -49.1657
-7.34768 49.9095
-5.1489 49.8365
-4.6935 -49.2489
-3.94685 49.4597
-2.64334 -49.5472
-1.69516 -49.9093
-0.823187 -49.2637
0.922634 -49.2382
1.95567 -48.74
2.87319 -49.2013
3.76296 -48.5477
4.63813 -49.1108
5.55993 -48.6287
6.53493 -49.1476
7.4706 -49.5662
8.45012 -48.9364
9.40461 -49.552
10.2652 -49.0164
11.2145 -49.6779
12.9931 -49.5983
14.0578 49.7907
14.9304 -49.6283
15.9051 49.9727
16.7495 -49.4958
17.7256 49.8668
18.637 -49.5617
19.6022 -49.1105
20.5443 -49.6938
21.3027 49.6355
22.3714 -49.8728
23.2426 -49.3618
24.0679 -49.9493
24.9867 -49.5272
25.8503 49.9436
27.7552 -49.0177
28.5734 -49.6
29.4629 -49.0624
30.536 -48.5152
32.2859 -48.5049
33.0732 -49.164
34.245 -48.7447
35.1772 -49.2118
35.1644 49.6033
36.1288 -49.8692
37.0683 49.5287
37.908 -49.8626
38.8252 -49.3588
39.7488 -49.9672
40.7031 -49.5172
41.6546 49.9227
42.5879 -49.6747
43.4818 49.8271
44.4336 -48.4705
47.1336 -49.0793
48.1138 -48.5468
49.0512 -49.1227
-49.9862 -48.6112
49.9917 -47.5998
-49.0024 -48.0869
-48.1413 -47.5255
-47.1979 -48.1819
-46.2993 -47.6662
-45.2715 -47.219
-44.339 -47.8168
-43.4493 -47.2618
-42.4674 -47.7423
-41.66 -48.3443
-40.8182 -47.7895
-38.9093 -47.716
-37.9816 -47.3082
-37.0884 -47.8789
-36.0925 -47.4071
-35.1492 -46.9858
-34.314 -47.538
-33.4332 -47.0069
-32.4872 -47.3966
-30.7368 -48.5224
-29.6894 -48.6864
-29.2523 -47.6922
-27.6369 -48.7725
-26.5299 -48.6807
-26.0974 -47.7713
-24.9382 -47.666
-23.8177 -47.6444
-22.8246 -47.6287
-22.3232 -48.4886
-21.2129 -48.4449
-20.1236 -48.384
-19.1027 -48.4331
-17.9349 -48.5036
-16.9069 -48.5274
-15.885 -48.4721
-14.8781 -48.4268
-13.6634 -48.2981
-12.6472 -48.2676
-10.5951 -48.1942
-9.96529 -49.0994
-9.40227 -48.2597
-8.91057 -49.2138
-7.37433 -48.2842
-6.24992 49.8925
-5.77647 -49.2323
-3.82976 -48.1873
-3.65476 -49.357
-2.85317 -48.4543
-1.78569 -48.9063
-0.927679 -48.2527
0.0492503 -48.7528
0.988952 -48.2211
2.86448 -48.1182
3.6882 -47.5073
4.62409 -48.0362
5.51534 -47.3791
6.44411 -48.086
7.40236 -48.5679
8.3004 -47.8915
9.37056 -48.4317
11.2098 -48.5902
12.0765 -49.0938
12.9135 -48.5467
13.8845 -49.1534
14.9993 -48.4527
15.8314 -49.0237
16.6866 -48.4974
17.5927 -48.9467
18.6119 -48.5114
19.6297 -48.1087
20.53 -48.698
21.4931 -49.3667
22.3497 -48.8152
23.32 -48.3637
24.1629 -48.9428
25.0655 -48.3772
25.9083 -49.0376
26.8348 -48.5983
28.6149 -48.4977
29.6348 -47.9422
30.5675 -47.4779
31.4306 -47.9934
32.4709 -47.4536
33.4387 -48.1214
34.275 -47.563
36.1342 -48.8707
37.0145 -49.3758
37.0072 -48.2983
37.8821 -48.8552
38.8231 -48.3312
39.7861 -48.8589
40.7637 -48.4682
41.7466 -49.0243
42.6402 -48.4179
43.4603 -49.0105
45.3744 -47.9998
46.2427 -48.5751
47.2286 -48.0533
49.0585 -48.1047
49.0834 -47.06
-49.9952 -46.5174
-49.0258 -47.052
-48.0188 -46.537
-47.1602 -47.1249
-46.1159 -46.5998
-45.2619 -46.0909
-44.3885 -46.7283
-43.4174 -46.1612
-42.5852 -46.7417
-41.6124 -47.1427
-40.6307 -46.6965
-39.8025 -47.2678
-38.8522 -46.7269
-37.0958 -46.7768
-36.1549 -46.3506
-35.1852 -45.9798
-34.2907 -46.4744
-33.2514 -46.0175
-31.495 -47.8233
-30.3928 -47.5729
-29.8588 -46.7095
-28.7085 -46.7417
-28.1749 -47.7151
-27.1257 -47.6855
-26.5431 -46.7569
-25.4861 -46.8362
-24.4307 -46.7141
-23.4148 -46.621
-21.7252 -47.5466
-20.7184 -47.5594
-19.6776 -47.4641
-18.6195 -47.5044
-17.6019 -47.5134
-16.6017 -47.4158
-15.3673 -47.4675
-14.3033 -47.3845
-13.286 -47.3568
-12.1298 -47.4166
-11.0845 -47.3044
-10.0357 -47.3013
-9.03081 -47.3293
-8.39513 -48.266
-7.87774 -47.4081
-6.79433 -49.2151
-5.21918 -48.3622
-4.5875 -47.5318
-3.6687 -46.8434
-2.71322 -47.313
-1.78275 -47.6803
-0.712853 -47.1318
0.0684035 -47.755
1.98457 -47.643
2.87176 -46.9253
3.72422 -46.3717
4.54631 -46.9602
5.57105 -46.3203
6.45601 -46.9795
7.39597 -47.4758
9.2723 -47.4271
10.415 -47.9888
11.1542 -47.3196
12.1155 -47.9402
12.952 -47.4036
13.9435 -48.0106
14.864 -47.4416
15.8496 -47.8833
16.7899 -47.4113
17.7386 -47.9579
18.642 -47.5077
19.562 -47.0645
20.4912 -47.5796
21.4632 -48.2549
22.4745 -47.8209
23.292 -47.2227
24.1947 -47.8533
25.077 -47.3617
26.0081 -47.8794
26.8645 -47.3137
27.6536 -48.0102
28.7155 -47.4549
29.6325 -46.9111
30.5712 -46.4502
31.4307 -46.9696
33.4203 -46.918
34.3585 -46.5663
35.1386 -48.1583
36.0913 -47.8447
37.0423 -47.2505
37.9428 -47.8608
38.9302 -47.3016
39.8345 -47.8391
40.8332 -47.368
41.7041 -48.0084
42.6711 -47.3664
43.5362 -47.9758
44.5255 -47.4598
46.2561 -47.5322
47.253 -46.9624
48.1206 -47.4552
48.1522 -46.4555
-49.857 -45.4578
-48.9673 -46.0213
-48.0641 -45.4187
-47.0088 -46.1199
-46.1555 -45.597
-45.1939 -45.0733
-44.3336 -45.6524
-43.3821 -45.091
-42.5135 -45.6061
-41.6005 -46.0497
-40.5977 -45.6213
-39.7428 -46.1493
-38.8279 -45.7097
-37.9567 -46.2445
-36.9837 -45.7683
-36.0045 -45.3512
-34.1714 -45.474
-32.3785 -45.37
-32.3216 -46.3815
-31.1384 -46.8391
-30.399 -45.7782
-29.2595 -45.8236
-28.2141 -45.7996
-27.6865 -46.7196
-27.1721 -45.829
-25.9701 -45.8541
-24.9762 -45.8421
-23.9742 -45.7889
-22.3384 -46.6223
-21.2828 -46.6115
-20.2757 -46.6548
-19.1312 -46.6227
-18.0354 -46.5883
-17.0392 -46.5165
-16.0246 -46.5607
-14.9703 -46.4774
-13.8074 -46.4324
-12.6913 -46.5198
-11.6735 -46.4198
-10.6154 -46.419
-9.51584 -46.3821
-8.40756 -46.3519
-7.41885 -46.4865
-6.34126 -48.2864
-5.58778 -47.3685
-4.74289 -46.4517
-3.6848 -45.568
-2.74903 -46.2468
-1.7666 -46.5866
0.155383 -46.6291
1.00579 -47.1621
1.93886 -46.477
2.81784 -45.9249
3.67987 -45.3773
4.72175 -45.7597
6.53327 -45.8835
7.3951 -46.427
8.29872 -46.8839
9.35864 -46.2612
10.2867 -46.7821
11.1924 -46.3211
12.0545 -46.8264
13.0637 -46.4034
13.9541 -46.9484
14.9625 -46.4249
15.8792 -46.8343
16.7746 -46.3953
17.6508 -46.9054
18.5453 -46.4439
19.5088 -45.9579
20.4521 -46.5853
21.4003 -47.1691
22.3725 -46.7233
23.4162 -46.1687
24.2181 -46.8418
25.1001 -46.2381
25.9878 -46.8291
26.8582 -46.2872
27.8449 -46.9379
28.7117 -46.4276
29.6766 -45.843
31.4937 -45.9721
32.4459 -46.3882
33.3521 -45.921
35.181 -45.9961
35.1885 -47.1587
36.2277 -46.6267
37.1817 -46.21
38.0572 -46.8159
38.9192 -46.2692
39.9061 -46.8177
40.7752 -46.2301
41.7933 -46.8456
42.5472 -46.1884
43.6063 -46.9642
44.476 -46.4514
45.3648 -46.8961
46.363 -46.4477
47.27 -45.947
49.0479 -46.0065
49.2316 -44.9584
-48.9918 -44.9699
-47.9853 -44.3102
-47.1119 -45.075
-46.1448 -44.4891
-45.1973 -43.9828
-44.2757 -44.6327
-43.3796 -44.0637
-42.4661 -44.4576
-41.6584 -45.0439
-40.6547 -44.6206
-39.7197 -45.1484
-38.7891 -44.673
-37.9129 -45.2428
-36.9251 -44.7643
-35.9559 -44.2287
-35.1454 -44.8435
-34.1189 -44.3371
-33.2891 -44.9083
-31.4359 -45.8531
-31.0307 -44.8915
-29.9437 -44.886
-28.915 -44.8604
-27.8271 -44.8229
-26.7687 -44.9076
-25.7106 -44.8864
-24.5167 -44.8969
-22.843 -45.6685
-21.8256 -45.696
-20.7929 -45.6818
-19.6473 -45.6619
-18.6423 -45.7289
-17.6397 -45.6219
-16.5199 -45.5416
-15.4362 -45.5611
-14.3343 -45.576
-13.1717 -45.5797
-12.1202 -45.5295
-11.1222 -45.4478
-10.0904 -45.5235
-8.97521 -45.5059
-7.81035 -45.5543
-6.68139 -45.6774
-6.86504 -47.4219
-6.02928 -46.4505
-4.66477 -45.3878
-2.72286 -45.2517
-1.74477 -45.5741
-0.846932 -46.1213
0.127042 -45.542
1.03959 -46.0127
1.88152 -45.4724
2.72042 -44.9115
4.65936 -44.7447
5.61676 -45.2964
6.52056 -44.8548
7.4562 -45.3659
8.42529 -45.8377
9.40055 -45.2292
10.2551 -45.7836
11.2524 -45.2175
12.1194 -45.7103
13.072 -45.3937
14.0991 -45.87
14.9566 -45.344
15.866 -45.8122
16.8136 -45.3303
17.6593 -45.8878
18.5741 -45.4064
19.5214 -44.9331
20.4205 -45.4832
21.4119 -46.1624
22.4348 -45.7276
23.346 -45.1701
24.2524 -45.6248
25.1528 -45.1576
26.0055 -45.7555
26.924 -45.2333
27.785 -45.8594
28.7366 -45.4111
29.6997 -44.7842
30.6123 -45.4482
32.3293 -45.3968
33.4111 -44.918
34.3193 -45.4534
35.243 -44.9539
36.2678 -45.5835
37.1632 -45.101
38.0713 -45.6492
39.0972 -45.131
39.8491 -45.8011
40.821 -45.0762
41.65 -45.6646
42.5836 -45.1503
43.5681 -45.8685
44.5635 -45.4523
45.4879 -45.8906
46.4254 -45.353
47.3064 -44.8661
48.2209 -45.3873
-49.8422 -44.4212
-48.9234 -43.9516
-47.8384 -43.3062
-47.013 -43.9696
-46.1174 -43.3529
-45.1468 -42.8654
-44.2052 -43.5032
-43.3062 -42.978
-42.4026 -43.4244
-41.4941 -44.0616
-40.5013 -43.61
-39.6398 -44.0965
-38.6922 -43.6153
-37.7734 -44.1571
-36.857 -43.7497
-35.9489 -43.1758
-35.0243 -43.847
-33.2003 -43.8017
-32.294 -43.3617
-32.3681 -44.3688
-31.4271 -43.8681
-30.4098 -43.9703
-29.4186 -43.9805
-28.3813 -43.8913
-27.3149 -43.8347
-26.2134 -43.989
-25.085 -44.0498
-23.4379 -44.8631
-22.3363 -44.8066
-21.3233 -44.7103
-20.2115 -44.7672
-19.1602 -44.7627
-18.1371 -44.7293
-17.0904 -44.6423
-15.9521 -44.6869
-14.8252 -44.6691
-13.6844 -44.6996
-12.6814 -44.6401
-11.6528 -44.5905
-10.5954 -44.5784
-9.60541 -44.5173
-8.49913 -44.5161
-7.45909 -44.545
-6.29585 -44.6908
-5.69642 -45.4926
-4.07459 -44.5325
-2.83806 -44.2103
-1.72504 -44.5568
-0.784651 -45.111
0.0598131 -44.5062
0.976137 -44.9541
1.83376 -44.3905
3.64237 -44.2861
4.53588 -43.7186
5.50761 -44.2098
6.44511 -43.7646
7.49098 -44.2597
8.39038 -44.7366
9.32152 -44.188
10.2814 -44.7403
11.2419 -44.183
12.1563 -44.7008
13.1 -44.1778
13.9268 -44.8489
15.0125 -44.2977
15.9599 -44.7994
16.8751 -44.3211
17.7412 -44.8279
18.6834 -44.3777
19.5447 -43.865
20.4907 -44.4336
21.3761 -45.0099
22.3136 -44.6464
23.3296 -44.1355
24.272 -44.5771
25.2041 -44.0494
26.0498 -44.6907
26.9901 -44.1275
27.807 -44.7064
28.7485 -44.3333
30.6131 -44.2619
31.4437 -44.8318
32.4695 -44.3555
33.412 -43.9086
34.2936 -44.4548
35.3159 -43.8952
36.1844 -44.5855
37.3221 -44.0157
38.2147 -44.642
39.03 -44.0545
39.9212 -44.5443
40.8622 -44.0341
41.7172 -44.6091
42.6269 -44.1369
43.609 -44.6334
44.5857 -44.3431
45.5065 -44.8573
46.3742 -44.3411
48.3711 -44.3969
49.2863 -43.8347
-49.79 -43.4146
-48.8219 -42.934
-47.8335 -42.2946
-46.9635 -42.8337
-46.0166 -42.3191
-45.1666 -41.778
-44.1738 -42.4675
-43.3257 -41.9352
-42.3605 -42.4001
-41.4165 -43.0702
-40.518 -42.4809
-39.6629 -43.028
-38.6447 -42.5081
-37.7352 -43.1637
-36.7933 -42.6203
-35.9085 -42.1589
-34.956 -42.7211
-34.0942 -43.2389
-33.1932 -42.7333
-32.2557 -42.3358
-31.1705 -42.8893
-30.0704 -43.0219
-28.96 -43.0679
-27.9206 -43.0094
-26.6751 -43.0322
-25.5682 -43.1445
-24.0591 -44.0138
-23.026 -43.9433
-21.9199 -43.804
-20.7266 -43.8372
-19.722 -43.7222
-18.6616 -43.7952
-17.5893 -43.7633
-16.5232 -43.8053
-15.3147 -43.7941
-14.2873 -43.6699
-13.1731 -43.7442
-12.1711 -43.6798
-11.0731 -43.6308
-10.061 -43.6149
-8.98306 -43.559
-7.98211 -43.6082
-6.90357 -43.7003
-5.90607 -43.7432
-5.41516 -42.8144
-5.28145 -44.5572
-2.7164 -43.1004
-1.74377 -43.5302
-0.851224 -44.0257
0.00699658 -43.4678
0.886575 -43.9306
1.78036 -43.3812
2.68761 -43.8134
3.59684 -43.2097
5.39476 -43.1651
6.46845 -42.7116
7.38062 -43.264
8.32038 -43.6893
9.33631 -43.1195
10.211 -43.6494
11.1585 -43.1393
12.1213 -43.699
13.1388 -43.1766
14.1242 -43.7277
15.0258 -43.2901
15.9924 -43.7733
16.8773 -43.2319
17.7674 -43.7707
18.6663 -43.3337
19.6011 -42.7899
20.4966 -43.293
21.3543 -43.9271
22.3444 -43.6196
23.3502 -43.0298
24.2379 -43.5423
25.1543 -43.0265
26.0962 -43.5932
27.0497 -43.0524
27.9087 -43.6652
28.824 -43.098
29.6507 -43.678
30.7685 -43.2781
31.624 -43.8085
32.511 -43.3607
34.2951 -43.424
35.3224 -42.8907
36.412 -43.5796
37.2846 -42.9929
38.2024 -43.4912
39.0717 -42.9924
39.9814 -43.5463
40.947 -43.0397
41.7875 -43.5777
42.7074 -43.017
43.6108 -43.6214
44.5455 -43.2019
45.4533 -43.7578
46.418 -43.1948
47.3795 -43.8689
48.3771 -43.3406
49.1869 -42.7508
-49.7716 -42.3961
-48.8611 -41.9348
-46.9065 -41.8275
-46.0594 -41.2968
-45.0299 -40.7411
-44.1986 -41.3896
-43.2897 -40.9227
-42.2732 -41.3605
-41.3975 -41.9017
-40.5197 -41.3788
-39.6032 -42.0016
-38.6136 -41.4823
-37.7118 -42.1187
-36.7858 -41.5735
-35.875 -41.1377
-34.9315 -41.6724
-34.0493 -41.1435
-34.0737 -42.1903
-33.1568 -41.727
-31.46 -41.7226
-30.5276 -42.077
-29.5034 -42.1113
-28.4856 -42.1322
-27.3458 -42.1609
-26.1184 -42.2051
-24.5689 -43.0859
-23.5694 -43.0275
-22.5098 -42.9566
-21.2795 -42.9792
-20.2841 -42.877
-19.2076 -42.859
-18.1937 -42.9082
-17.1475 -42.8563
-16.0608 -42.8268
-14.9537 -42.8166
-13.8597 -42.7582
-12.7267 -42.7797
-11.6924 -42.6702
-10.6214 -42.7434
-9.58395 -42.7061
-8.50467 -42.587
-7.4512 -42.6177
-6.43266 -42.717
-4.79713 -41.7878
-4.73302 -43.7035
-3.66684 -43.5638
-1.84515 -42.4217
-0.969498 -42.9061
-0.0448439 -42.4277
0.887285 -42.8961
1.81446 -42.2824
2.6766 -42.7823
3.61191 -42.2066
4.48338 -42.7227
5.65012 -42.1134
6.61021 -41.72
8.37948 -42.673
9.37705 -42.1209
10.2849 -42.6252
11.3571 -42.0638
12.1899 -42.6297
13.1979 -42.0253
14.2238 -42.6938
15.0837 -42.1076
15.8714 -42.7151
16.8623 -42.211
17.8172 -42.7226
18.7338 -42.2816
19.6508 -41.7579
20.5771 -42.2938
21.4315 -42.9172
22.3976 -42.5297
23.3833 -41.9972
24.2742 -42.4926
25.2291 -42.0082
26.1222 -42.486
27.1278 -42.0279
27.9756 -42.5608
29.8286 -42.6105
29.8198 -41.5943
30.778 -42.1668
31.71 -42.7369
33.4428 -42.8667
34.3483 -42.3938
35.326 -41.8947
36.3277 -42.466
37.231 -41.9816
38.2476 -42.4146
39.1311 -41.9244
39.9783 -42.5
40.9123 -42.0384
41.8453 -42.5168
42.7268 -42.0123
43.696 -42.6014
44.6597 -42.1219
45.5937 -42.5685
46.559 -42.0776
47.4496 -42.7327
48.3391 -42.1999
49.2836 -41.7435
-49.8718 -41.1987
-48.0106 -41.2909
-47.0247 -40.805
-45.9137 -40.2637
-45.0851 -39.6954
-44.1053 -40.346
-43.1931 -39.7547
-42.2644 -40.3481
-41.3836 -40.8742
-40.5058 -40.3777
-39.5721 -40.8646
-38.4617 -40.4677
-37.6565 -41.0653
-36.6928 -40.5711
-35.8114 -39.9686
-34.9754 -40.59
-34.1071 -39.9984
-33.1212 -40.5865
-32.2885 -41.1532
-31.3072 -40.7239
-29.9602 -41.1836
-28.9412 -41.2004
-27.8122 -41.2759
-26.7513 -41.3296
-25.0265 -42.1927
-24.0268 -42.1264
-23.0134 -42.0229
-22.0007 -41.9763
-20.8481 -42.0369
-19.8115 -41.9614
-18.7787 -41.9453
-17.6761 -42.0122
-16.6057 -41.9513
-15.4365 -41.8691
-14.3702 -41.8125
-13.3679 -41.8256
-12.2928 -41.8042
-11.2786 -41.6857
-10.2331 -41.7182
-9.12758 -41.8085
-7.98818 -41.7183
-6.92279 -41.716
-5.82378 -41.8856
-3.92156 -40.6336
-4.36686 -42.705
-2.75957 -42.0157
-2.86536 -40.9763
-0.97027 -41.8618
-0.0814605 -41.3572
0.850157 -41.9002
1.73502 -41.1319
2.69832 -41.7844
3.582 -41.1643
4.49303 -41.707
5.56341 -41.0892
7.49641 -41.1674
7.46775 -42.2329
9.46944 -40.9811
10.4433 -41.6029
11.2825 -41.0467
12.2896 -41.5189
13.0872 -40.8885
14.1159 -41.5477
15.0935 -41.0365
15.9897 -41.6494
16.9074 -41.1894
17.7728 -41.7082
18.8309 -41.1866
19.7822 -40.7465
20.6994 -41.2211
21.5306 -41.8848
22.4777 -41.4299
23.367 -40.9045
24.3459 -41.4453
25.2687 -40.8834
26.1754 -41.4497
27.1127 -41.003
28.038 -41.5194
28.8958 -42.0294
29.935 -40.5451
30.9296 -41.1359
31.783 -41.6874
32.6289 -42.264
33.4994 -41.7648
35.372 -40.8845
36.2903 -41.2708
37.3355 -40.8944
38.2068 -41.3888
39.2234 -40.8922
40.0298 -41.4834
40.9865 -40.9643
41.8673 -41.4719
42.8827 -40.9721
43.801 -41.5912
44.7167 -41.0787
45.613 -41.5581
46.5911 -41.049
47.4726 -41.6184
48.3576 -41.1029
49.2666 -40.6346
-49.8434 -40.162
-48.9005 -40.7433
-48.0153 -40.2266
-46.8855 -39.6989
-45.9892 -39.2447
-44.9529 -38.6093
-44.1159 -39.1851
-42.2923 -39.2799
-41.3915 -39.8505
-40.4926 -39.3439
-39.5782 -39.8499
-38.6582 -39.4437
-37.5824 -39.9821
-36.6803 -39.3919
-35.8181 -38.8605
-34.9222 -39.3477
-34.0442 -38.846
-33.1289 -38.4063
-33.0113 -39.5417
-32.1663 -40.165
-30.3043 -40.2285
-29.2524 -40.1878
-28.2542 -40.3613
-27.1749 -40.4239
-25.4992 -41.1556
-24.5062 -41.2398
-23.4852 -41.1342
-22.4129 -41.0296
-21.3789 -41.0442
-20.3766 -41.132
-19.1598 -40.9819
-18.1574 -41.0903
-17.1635 -40.9619
-16.0328 -41.0342
-14.9677 -40.9285
-13.936 -40.9031
-12.8584 -40.8896
-11.8153 -40.8455
-10.7038 -40.8385
-9.70541 -40.8775
-8.48624 -40.7241
-7.3642 -40.8119
-6.34629 -40.8303
-5.35395 -40.941
-3.94574 -39.575
-3.75957 -41.8389
-1.95142 -41.3896
-1.07889 -40.8472
-0.108008 -40.3489
0.779024 -40.806
1.83544 -40.104
2.68058 -40.6644
3.71195 -40.097
4.6237 -40.6726
5.59744 -40.08
6.60816 -40.639
8.43093 -41.578
9.28455 -39.9458
10.3961 -40.5347
11.2846 -40.0311
12.1531 -40.5149
13.1189 -39.8916
14.1595 -40.4805
15.11 -40.0136
15.9731 -40.5222
17.0316 -40.1715
17.9245 -40.6426
18.8286 -40.1627
19.7156 -39.646
20.75 -40.1678
21.6459 -40.8754
22.5618 -40.2832
23.4843 -39.7202
24.2776 -40.3545
25.3468 -39.8378
26.1806 -40.3987
27.1978 -39.8529
28.0479 -40.512
29.009 -40.9895
30.029 -39.4804
30.8188 -40.098
31.7658 -40.5494
32.6219 -41.1446
34.4409 -41.38
35.5352 -39.6522
36.4702 -40.2482
37.3981 -39.8633
38.2925 -40.365
39.1644 -39.8599
40.1394 -40.3829
41.0561 -39.8544
41.9855 -40.4816
42.8882 -39.8965
43.7529 -40.4664
44.6771 -39.9996
45.5924 -40.5175
46.6606 -40.0562
47.4967 -40.5971
48.4316 -40.084
49.301 -39.5534
-49.7495 -39.0822
-48.9135 -39.6219
-47.8596 -39.1878
-46.8537 -38.6711
-45.8787 -38.2464
-44.0554 -38.1761
-43.1476 -38.6888
-42.2182 -38.2367
-41.4011 -38.8258
-40.5143 -38.3274
-39.5747 -38.8175
-38.554 -38.2573
-37.7348 -38.9764
-36.7286 -38.2801
-35.8112 -37.7539
-34.9419 -38.3523
-34.0561 -37.8488
-33.1625 -37.3962
-32.1134 -39.0563
-31.2374 -39.6042
-30.2589 -39.1741
-28.6158 -39.4025
-27.6076 -39.5035
-26.1521 -40.3993
-25.1583 -40.2143
-24.0939 -40.2934
-23.0403 -40.2409
-21.8788 -40.1731
-20.8819 -40.1716
-19.8101 -40.2028
-18.7883 -40.0139
-17.7787 -40.0657
-16.6827 -40.0903
-15.5969 -40.129
-14.4929 -40.0263
-13.4832 -39.982
-12.4502 -39.9813
-11.336 -39.9751
-10.2815 -39.887
-9.24964 -39.9372
-8.03406 -39.8389
-6.95751 -39.8898
-5.80752 -39.9609
-4.80899 -40.1082
-4.11527 -38.5967
-2.99001 -39.9213
-2.06585 -40.3753
-1.06594 -39.8269
-0.059103 -39.3356
0.847865 -39.806
1.81488 -39.1061
2.75604 -39.584
4.5899 -39.6314
5.40152 -39.0378
6.54041 -39.6139
7.48437 -40.1126
8.47954 -40.5633
9.31724 -38.9014
10.2206 -39.4058
11.2078 -39.009
12.2301 -39.4418
12.3671 -38.4311
14.1644 -39.484
15.1249 -38.9834
16.0536 -39.5178
16.9822 -39.0894
17.8541 -39.5855
18.7835 -39.162
19.7426 -38.6365
20.6882 -39.1439
21.6497 -39.7078
22.5579 -39.2271
23.5247 -38.7218
24.4003 -39.235
25.39 -38.7769
26.3377 -39.2842
27.2418 -38.8238
28.1262 -39.4682
29.0869 -39.9651
30.9304 -38.9631
31.7765 -39.5427
32.6743 -40.0751
33.5678 -40.694
34.5674 -40.2757
35.6052 -38.6392
36.4724 -39.2091
37.3917 -38.7378
38.2575 -39.2776
39.1716 -38.8459
40.0895 -39.3819
41.0784 -38.8481
41.9653 -39.3895
42.9905 -38.88
43.8689 -39.3908
44.778 -38.9642
45.7119 -39.4895
46.6185 -39.0588
47.5171 -39.5001
48.4086 -39.0512
49.3908 -38.563
-49.6429 -38.0625
-48.7502 -38.5901
-47.8174 -38.1341
-46.935 -37.6278
-45.9845 -37.2319
-45.0273 -37.5943
-43.143 -37.6337
-42.1966 -37.225
-41.3189 -37.7521
-40.4162 -37.2405
-39.4381 -37.7384
-38.4802 -37.2537
-37.6031 -37.7788
-36.6739 -37.2292
-35.7996 -36.7291
-34.885 -37.2864
-33.9952 -36.8144
-32.2187 -37.0322
-32.054 -38.0276
-31.0544 -38.4977
-29.3407 -38.6977
-28.3412 -38.42
-26.6155 -39.4538
-25.6151 -39.3148
-24.5686 -39.406
-23.5315 -39.1929
-22.4618 -39.348
-22.0804 -38.3948
-21.4731 -39.1867
-20.4737 -39.1232
-19.4319 -39.2458
-18.2173 -39.1003
-17.2034 -39.1224
-16.1522 -39.1514
-15.1382 -39.1865
-14.0929 -39.098
-12.9629 -39.1066
-11.8904 -39.0728
-10.8306 -39.0248
-9.78699 -38.9895
-8.59196 -38.9725
-7.51474 -38.9784
-6.19597 -38.7789
-5.12664 -39.0471
-3.33202 -37.8525
-2.13965 -39.336
-2.29306 -38.3168
-1.2393 -38.8198
-0.318777 -38.3718
0.824913 -38.7694
1.68094 -38.0666
2.65159 -38.5603
3.56089 -38.9695
4.46942 -38.5258
7.52201 -38.0443
7.38234 -39.0444
8.32056 -39.5141
9.55294 -37.9338
10.5102 -38.2816
11.4686 -37.9275
13.4019 -37.7947
14.2635 -38.3802
13.3445 -38.7906
15.1888 -37.9745
16.0912 -38.4888
17.0105 -38.0288
17.9279 -38.4842
18.8597 -38.1342
19.8365 -37.5887
20.7395 -38.0766
21.6146 -38.654
22.4804 -38.161
23.527 -37.7253
24.3994 -38.2081
25.4126 -37.7427
26.2872 -38.2514
27.1912 -37.773
28.1837 -38.2585
29.1724 -38.9178
30.0609 -38.4414
31.8863 -38.4491
32.7191 -39.0634
33.676 -39.7044
34.5582 -39.1903
35.5668 -37.6251
36.4958 -38.1984
37.3818 -37.7063
38.315 -38.2525
39.255 -37.7746
40.1911 -38.3191
41.1644 -37.8517
42.0807 -38.2966
42.9982 -37.8077
43.8531 -38.3896
44.8316 -37.8088
45.6584 -38.4854
46.6892 -38.0358
47.6116 -38.4088
48.5627 -38.014
49.4334 -37.474
-49.5849 -36.9482
-48.7609 -37.5243
-47.8118 -37.1391
-46.8626 -36.5323
-45.1421 -36.5779
-44.0218 -37.1633
-43.1783 -36.6179
-42.133 -36.1876
-41.2713 -36.7272
-40.359 -36.2163
-39.3391 -36.718
-38.4627 -36.2026
-37.5806 -36.7099
-36.665 -36.2282
-35.784 -35.7274
-34.8844 -36.2547
-33.9204 -35.7618
-32.8974 -36.2944
-31.4016 -36.4436
-31.2458 -37.4373
-30.2325 -37.8551
-29.1863 -37.6903
-27.2287 -38.4556
-26.2235 -38.4854
-25.1804 -38.37
-24.1374 -38.4009
-23.0743 -38.2971
-22.5858 -37.3936
-21.0756 -38.2564
-20.4757 -37.3746
-19.885 -38.2499
-18.7971 -38.2669
-17.7113 -38.2406
-16.6833 -38.2564
-15.6154 -38.0873
-14.6198 -38.2238
-13.5012 -38.2596
-12.4549 -38.2536
-11.3952 -38.1483
-10.3146 -38.1104
-9.2457 -38.107
-8.18744 -38.0512
-7.02536 -37.8821
-5.17054 -38.0045
-4.33639 -37.4233
-3.17058 -38.9348
-2.43496 -37.2683
-1.40285 -37.7199
-0.450134 -37.3125
0.570891 -37.7011
1.5001 -37.0789
4.54228 -37.4599
5.42877 -38.0316
6.53346 -38.5223
6.37354 -37.5252
7.31909 -37.0138
8.50572 -38.3245
9.47563 -36.9256
10.4878 -37.0211
11.5385 -36.9321
12.5188 -37.3106
13.4674 -36.7523
14.4755 -37.2601
15.2129 -36.591
16.0938 -37.4346
17.1368 -36.9826
18.0123 -37.4943
18.9222 -37.0139
19.8415 -36.5607
20.7273 -37.0706
21.6434 -37.6078
22.6886 -37.1808
23.5517 -36.632
24.4564 -37.1789
25.3753 -36.5955
26.3589 -37.2084
27.3032 -36.7783
28.2876 -37.2677
29.1813 -37.8896
30.1013 -37.3928
30.9884 -37.9631
32.7762 -38.0147
33.7218 -38.5573
34.6608 -38.1649
35.6305 -36.5973
36.4934 -37.1748
37.4368 -36.6606
38.348 -37.2289
39.3478 -36.6873
40.2829 -37.3169
41.1714 -36.8363
42.0683 -37.3021
42.985 -36.7741
43.9111 -37.3648
44.7362 -36.7873
45.7383 -37.3619
46.7546 -36.9577
47.6971 -37.3716
48.563 -36.8645
49.5557 -36.4324
-49.5559 -35.8499
-48.6955 -36.4411
-47.8259 -35.9463
-45.9712 -35.9938
-45.0904 -35.4497
-44.0388 -36.0754
-42.9939 -35.626
-42.0941 -35.1409
-41.2244 -35.6737
-40.3086 -35.1657
-39.3757 -35.6887
-38.5145 -35.0785
-37.6148 -35.6705
-36.6785 -35.2011
-35.6153 -34.6413
-34.8121 -35.2537
-33.0409 -35.2749
-32.0584 -35.4807
-30.9507 -35.5187
-30.3675 -36.8604
-29.274 -36.692
-28.3523 -37.119
-27.2661 -37.4179
-26.1167 -37.419
-24.7264 -37.4203
-23.7313 -37.4867
-23.1769 -36.5162
-22.1502 -36.3824
-21.5864 -37.2811
-21.1484 -36.3839
-19.4515 -37.3167
-18.4026 -37.3499
-17.3713 -37.2498
-16.2885 -37.2344
-15.0918 -37.1742
-14.0392 -37.3884
-12.9875 -37.3932
-11.9005 -37.2042
-10.745 -37.2078
-9.73373 -37.1842
-8.68873 -37.068
-7.64831 -37.0736
-6.07435 -37.5402
-5.25087 -36.9834
-4.43753 -36.3552
-3.50691 -36.8602
-2.29215 -36.2502
-1.31651 -36.5704
-0.408757 -36.0519
0.494835 -36.5423
3.49602 -37.9645
3.55544 -36.9614
4.44299 -36.4497
5.50989 -36.9159
6.43215 -36.4893
7.79933 -36.1381
8.31796 -37.2822
8.83622 -36.1181
9.9263 -35.9967
10.923 -35.9243
11.9254 -35.9916
13.0203 -35.8576
14.1867 -35.9352
15.1308 -35.5858
16.2394 -36.4101
17.1513 -35.9442
18.0175 -36.4849
18.9643 -35.906
19.9304 -35.4095
20.8339 -36.0781
21.7708 -36.5882
22.6705 -36.1526
23.5974 -35.5772
24.4817 -36.0702
25.4797 -35.5726
26.3511 -36.1754
27.3423 -35.775
28.2327 -36.2156
29.2403 -36.8486
31.0535 -36.9669
31.9635 -37.4398
32.9289 -36.9832
33.8254 -37.5036
34.7218 -37.0555
35.6629 -35.5998
36.5186 -36.1296
37.4831 -35.6391
38.3421 -36.181
39.3756 -35.6845
40.2815 -36.3068
41.2365 -35.6961
42.0896 -36.2542
42.9742 -35.7556
43.8752 -36.2811
44.9225 -35.804
45.8691 -36.369
46.8196 -35.7861
47.6729 -36.3319
48.6331 -35.8652
49.5633 -35.3576
-49.5061 -34.7982
-48.624 -35.2966
-47.6989 -34.8548
-46.8362 -35.372
-45.9598 -34.8826
-44.1592 -35.0494
-43.0839 -34.531
-42.1905 -34.0881
-41.2253 -34.606
-40.3165 -34.1449
-39.4233 -34.612
-38.3803 -34.0743
-37.4195 -34.5134
-36.4922 -34.0299
-36.2191 -33.062
-34.6222 -34.2681
-33.5821 -34.4094
-32.3891 -34.4553
-31.3904 -34.569
-30.0013 -35.9076
-29.2687 -34.8312
-28.4673 -35.8802
-27.5923 -36.36
-26.5907 -36.507
-25.4722 -36.623
-24.417 -36.3981
-23.73 -35.676
-22.7234 -35.4715
-21.6161 -35.4859
-20.0909 -36.3401
-18.9836 -36.4376
-17.9334 -36.4174
-16.8123 -36.347
-15.7513 -36.3759
-14.5887 -36.2791
-13.5345 -36.5341
-12.4998 -36.3188
-11.4049 -36.3301
-10.2263 -36.2932
-9.21139 -36.1972
-8.15837 -36.1848
-7.11285 -36.2069
-6.13606 -36.5144
-5.36351 -35.8361
-4.47491 -35.3537
-3.56494 -35.7579
-2.63416 -35.3113
-1.38895 -35.5079
-0.441528 -35.0391
1.44538 -35.9171
2.5145 -37.4555
2.37253 -36.3781
3.44387 -35.6591
5.04115 -35.606
6.04033 -35.5517
7.04318 -35.3374
8.19946 -35.2195
9.30637 -35.1821
10.3215 -34.9871
11.3941 -34.9726
12.4146 -34.9677
13.5241 -34.8234
14.5454 -34.6376
15.6705 -34.552
16.2327 -35.3899
16.8831 -34.542
17.957 -35.2916
19.0598 -34.8493
20.8798 -35.0092
21.788 -34.5345
21.8213 -35.5716
22.7383 -35.0445
23.7463 -34.482
24.5779 -35.0445
25.616 -34.5774
26.5461 -35.1375
28.4697 -35.2122
29.2742 -35.8184
30.2481 -36.3005
31.1207 -35.8248
32.0305 -36.4052
32.8943 -35.8589
33.8285 -36.4692
34.7068 -35.9974
35.7485 -34.5918
36.6667 -35.0674
37.5856 -34.6514
38.545 -35.0913
39.3466 -34.5013
40.2874 -35.2595
41.1334 -34.6514
42.0974 -35.0999
43.0458 -34.6854
43.9746 -35.2847
44.8944 -34.7128
45.9032 -35.3096
46.8909 -34.7182
47.7916 -35.3061
48.6364 -34.7183
49.5729 -34.2064
-49.5097 -33.731
-48.6134 -34.279
-47.648 -33.8185
-46.8014 -34.3509
-45.8972 -33.8673
-45.0693 -34.4303
-44.1018 -33.9993
-43.1356 -33.3911
-41.21 -33.6026
-40.1625 -33.1413
-39.2193 -33.4747
-38.286 -33.0093
-37.3707 -33.433
-36.6163 -32.13
-35.3882 -32.4891
-34.052 -33.4415
-32.978 -33.5104
-31.784 -33.552
-30.7904 -33.7112
-30.2959 -34.6632
-29.6509 -33.886
-28.5326 -34.1557
-27.9714 -34.9998
-26.9727 -35.4805
-25.9093 -35.6952
-24.9081 -35.5089
-24.4697 -34.5516
-23.403 -34.6699
-22.1793 -34.5472
-20.5644 -35.4082
-19.5218 -35.384
-18.5031 -35.507
-17.4236 -35.4852
-16.3603 -35.2821
-15.2358 -35.4458
-14.1801 -35.3753
-12.9967 -35.4242
-11.8891 -35.4303
-10.8901 -35.4119
-9.83183 -35.2688
-8.73606 -35.2632
-7.46968 -35.2224
-6.31594 -35.524
-5.36769 -34.8389
-4.58153 -34.1725
-3.65911 -34.6591
-2.82738 -34.0981
-1.92474 -34.5757
-0.938247 -34.0916
0.555952 -35.4351
1.40647 -34.9101
2.4958 -35.3485
3.17748 -34.6198
4.34603 -34.8175
5.37246 -34.6418
6.42618 -34.5216
7.55442 -34.3672
8.62753 -34.3055
9.64081 -34.2056
10.7678 -34.0653
11.81 -34.0493
12.9049 -33.9724
13.8934 -33.8704
14.9666 -33.71
16.0907 -33.5505
17.0938 -33.5761
18.1999 -34.3015
19.0738 -33.8037
19.9769 -34.376
20.9126 -34.0074
21.8334 -33.4941
22.8408 -33.9204
23.7379 -33.4394
24.6477 -33.9804
26.611 -34.0387
27.4474 -34.6288
28.4354 -34.1373
29.3854 -34.7176
30.2894 -35.2652
31.152 -34.7212
32.0169 -35.3484
32.8862 -34.8353
33.8136 -35.4373
34.8005 -34.9787
35.7345 -33.4633
36.6429 -34.0029
37.5528 -33.4062
38.3903 -34.0193
39.4681 -33.4976
40.2773 -34.1031
41.2422 -33.627
42.2105 -34.0959
43.1237 -33.6369
43.9471 -34.2271
44.9141 -33.6804
45.9218 -34.2069
46.8009 -33.6595
47.762 -34.203
48.7491 -33.6178
49.6524 -33.1173
-49.3068 -32.5772
-48.5042 -33.2716
-47.6071 -32.7767
-46.7309 -33.2892
-45.8554 -32.7636
-44.9786 -33.4095
-44.0734 -32.9276
-42.7978 -32.3608
-42.0995 -33.0775
-41.0056 -32.5605
-39.9099 -32.059
-38.8491 -31.9535
-37.6064 -32.1956
-37.0255 -31.0929
-35.368 -33.6001
-34.3582 -32.4708
-33.3534 -32.5291
-32.3573 -32.6664
-31.1387 -32.7309
-30.0548 -32.9101
-29.0263 -33.0637
-27.9413 -33.1599
-27.4731 -34.0894
-26.5168 -34.5167
-25.5288 -34.606