ITEM: TIMESTEP
31600
ITEM: NUMBER OF ATOMS
10000
ITEM: BOX BOUNDS pp pp pp
-9.9000000000000000e+01 9.9000000000000000e+01
-9.9000000000000000e+01 9.9000000000000000e+01
-1.9800000000000001e+01 1.9800000000000001e+01
ITEM: ATOMS x y
-91.4078 -98.5547
85.9583 93.0505
98.9769 90.9173
-91.8203 94.3956
-98.8727 -96.1971
-83.8643 94.5843
-84.7993 89.5243
-77.6728 97.8991
-75.0277 92.8197
-82.2325 98.622
-57.2524 -89.9172
-85.7589 94.4429
-69.3777 -93.4745
-72.5469 -86.8482
-74.976 97.7743
-72.335 86.9444
-61.2161 98.2543
-59.2573 -96.9978
-56.3742 -98.845
-58.9065 -94.8409
-61.5857 90.0439
-66.6822 87.0686
-52.7294 91.8363
-54.1999 96.1003
-52.3314 -97.2967
-70.2195 -95.6409
-37.9381 91.9027
-30.7886 95.073
-36.3542 94.2712
-32.7624 95.1747
-40.7674 91.0778
-32.0233 98.9039
-44.0398 -92.6661
-34.2463 -93.1301
-38.8441 -96.6304
-25.7132 94.3247
-25.9532 -90.0351
-27.7879 94.8746
-28.6989 91.7472
-0.15829 81.5198
-13.4497 -93.9468
-9.76572 98.5055
-31.5789 -85.003
-19.8114 91.2342
-20.8761 95.6519
-21.5673 93.8848
-14.7417 91.8033
-12.1094 94.8845
8.50614 -97.048
-4.57031 -87.8961
12.0475 -98.194
2.90189 -85.9068
0.390476 -90.8928
12.0404 -91.4341
3.32688 88.7891
3.28357 94.5882
21.2067 88.37
13.55 -91.0283
7.65032 96.7075
21.6921 -97.5134
20.8289 89.4369
27.7802 92.2549
27.5855 94.905
23.6986 -92.1858
30.8804 -96.7785
25.0686 -76.4768
28.9297 -81.3507
44.8331 -86.533
33.0511 95.2917
36.7651 -91.7003
36.4732 -96.0219
43.653 92.1904
42.0811 97.6668
38.644 88.0887
32.9586 -96.8041
45.4203 92.4205
50.2969 98.0314
43.2325 94.5927
54.5716 98.4977
57.5295 85.7947
63.0756 88.3772
64.7557 97.3005
64.411 -91.35
50.0649 94.5492
64.3052 -96.104
66.66 -89.6095
74.3509 94.7475
67.6057 -93.9746
73.7349 84.115
80.1862 -88.8659
83.7607 98.307
72.5924 -93.5748
80.5318 93.6306
84.6268 93.8687
87.3684 -93.8881
97.3411 97.7107
-97.385 96.0045
87.6382 -89.3104
86.749 -97.1864
-97.2443 98.2566
-96.2895 -90.4722
-93.9509 -92.2911
-95.5073 88.6002
-86.5076 -86.5301
98.3958 -91.6885
-89.6989 98.8037
-91.1511 93.5765
-84.3666 98.9017
-76.2747 -94.9595
-89.8219 95.25
-81.586 -83.6249
-72.3493 98.0158
-91.8608 -92.7577
-67.3936 -88.5519
-81.2916 96.9301
-77.9301 95.2838
-71.976 -96.8153
-64.8821 -93.5083
-68.7763 -96.8904
-55.1083 94.2191
-53.6029 -90.7099
-51.8702 -90.9889
-64.3952 -90.6913
-56.324 -89.2752
-62.1533 -98.6034
-47.8729 89.0063
-50.8344 95.5107
-48.1034 -95.173
-44.62 90.8365
-42.3083 -98.3007
-35.3128 94.1046
-31.6639 -95.5746
-28.0583 -89.2713
-43.8281 -96.6168
-30.3284 -88.1503
-27.6026 -97.5226
-36.1908 -96.8114
-15.6823 83.6609
-20.7611 88.1612
-16.2613 97.4978
-13.8557 -90.4519
-24.9315 95.944
-20.6967 -94.7362
-16.7282 -94.6973
-15.9656 -93.5729
-0.575335 -95.896
-10.851 -86.3181
-1.66296 -98.5199
-15.4595 -97.0727
2.20921 -87.7422
8.41752 -93.8549
5.57295 92.5633
-3.13307 -94.5726
16.0888 -88.5519
13.5687 -95.4559
15.709 -92.3839
4.58658 91.5937
9.39645 86.8537
19.2322 93.8796
22.0867 90.6643
11.8077 98.6628
24.4189 -93.385
17.717 -93.4652
37.2762 -97.9146
29.891 -92.4234
23.9253 -82.316
25.2195 -84.2791
36.7537 98.4394
38.5004 -98.3673
26.4019 95.5159
41.7886 98.9447
32.5676 96.2767
48.4085 94.3094
49.2039 -89.0762
55.5577 -98.9276
57.0647 -96.9451
47.2619 97.8515
63.3802 91.3796
61.3952 85.936
52.1085 -95.6109
57.1796 -98.4
65.1986 -92.3783
73.4098 -97.3942
73.5747 -87.8776
62.5683 96.7764
69.2462 -97.852
65.5418 -96.4026
80.4696 96.5146
75.9475 -93.6169
66.3867 -95.5727
91.8689 -88.5468
80.2029 -93.7453
89.9979 -92.9336
96.5953 89.7481
85.8408 -88.9169
86.7211 97.5878
-98.1308 -87.4591
93.9143 -93.1862
-92.1781 97.7403
91.7241 85.1615
92.3425 -97.8982
-97.4196 -93.8088
-95.8856 -92.3119
-83.3624 88.6394
-86.1985 -98.2848
-92.6144 -95.8588
-94.7932 94.7795
-89.79 -96.5411
-84.83 -86.5229
-83.8454 -90.551
-77.9316 93.1499
-69.5788 98.983
-73.2069 -86.0633
-72.9883 -96.5697
-70.624 -97.7301
-60.4203 -86.2008
-65.7279 -88.4818
-65.5381 -94.9135
-75.0337 96.4155
-64.2167 95.6042
-51.819 -94.5401
-60.4498 -93.7794
-49.9294 -90.8789
-54.1447 -91.9462
-50.466 -88.3122
-31.6242 -90.8819
-48.5059 -92.2482
-43.5758 97.6362
-44.1445 98.4777
-31.2899 97.4185
-40.0581 -91.4816
-27.0535 -89.7116
-29.5723 96.9732
-29.1918 -94.1255
-42.1906 -87.1018
-24.7088 91.6492
-28.5355 96.8996
-21.5628 -98.6756
-30.2732 -83.7436
-9.8222 -90.5127
-30.4406 -94.9169
-22.6543 -89.2795
-15.1891 -88.1384
-23.2861 93.649
-20.6116 -93.7293
-8.88038 92.1199
-6.84981 -87.5331
-20.7073 -96.3389
5.87524 -94.3283
3.61301 98.5805
10.7014 -83.7587
4.45022 -98.1781
16.5125 -87.389
9.81521 -84.2172
-10.4437 -83.4655
21.1959 -92.2065
22.3938 96.2376
9.48768 96.9331
24.5227 97.6125
33.0313 93.39
18.6239 -87.4595
14.2129 -98.214
34.5304 -98.2231
33.0515 -98.7175
22.8252 -80.6763
26.6808 -91.9941
38.0989 -92.2403
28.2007 98.7647
22.7505 -85.0263
28.3951 -93.3729
36.0225 -92.9195
34.7046 -96.5516
34.8136 94.5527
33.0545 -95.5092
57.2588 -88.4128
38.7938 -93.231
49.0477 98.207
59.3854 -90.1397
60.8732 -93.4524
60.8993 98.5125
64.1846 92.9109
47.2058 92.2387
54.8854 -91.9908
68.5888 -85.105
63.6641 96.489
65.9884 -87.517
70.0322 -95.5784
87.6274 98.576
74.5613 -94.7601
76.538 -86.5599
85.6142 -93.2235
72.5941 -84.244
92.5758 -87.6768
90.9043 -95.9205
88.52 -92.6296
85.8783 -92.2586
89.0858 -89.8133
84.264 -85.8112
96.4938 -97.9317
-96.3588 -85.0726
-95.4315 -95.0457
-96.8617 -96.848
-90.6858 -90.2475
-95.1465 -90.8185
-88.5792 -96.4805
-79.3973 97.7257
-89.0882 96.5641
-75.1973 -98.0652
-75.0805 -96.9863
-71.4851 95.4727
-87.3472 -98.4197
-64.2372 97.3262
-80.0961 -89.7422
-59.8321 -92.9099
-68.5293 -97.8929
-67.247 -89.5968
-80.1274 -88.4854
-66.7821 -98.352
-66.6263 -93.4098
-67.8828 95.3862
-63.0817 -90.0498
-57.9067 -96.5344
-54.3213 -87.2273
-41.8701 -83.8164
-61.9617 -92.8172
-63.1206 97.847
-48.0004 -96.5166
-42.6946 -91.2718
-38.2625 -92.954
-37.8446 94.677
-31.4298 -96.9871
-37.8129 -88.7576
-47.142 93.479
-37.134 -81.9357
-29.5944 -96.973
-32.0357 -88.0896
-28.1101 -94.4622
-23.1339 -96.8395
-22.8618 -88.2439
-24.3775 -91.4892
-14.763 -90.8918
-32.8506 -91.6176
-10.4553 -84.9194
-18.7078 98.1799
-15.4178 -95.2129
-14.8153 98.8504
-19.4872 92.4681
-14.5851 -89.0254
-5.4699 -92.6843
-5.0349 93.3522
-5.17912 -91.5886
14.5365 -91.9131
13.3387 -88.6928
13.5157 97.2764
10.3466 98.4738
5.67615 96.5133
24.7578 -97.2425
15.2555 -94.7303
16.6495 -97.2816
23.2762 96.7771
13.9904 -85.5003
23.75 -94.4238
25.39 98.398
24.9825 -88.142
40.595 -89.1054
27.2297 -85.7549
25.6439 -86.1579
36.1031 -90.4724
28.4664 -88.1247
37.2238 -90.683
33.4558 -87.3389
39.9783 -81.7492
46.7225 -98.0705
40.9614 92.6359
38.4946 91.682
39.9471 97.4114
59.2139 94.7737
48.1509 -97.3034
36.4357 -97.0501
62.2834 -87.9843
62.1978 -92.6924
53.8495 -94.2507
58.3638 -96.8098
56.819 -95.651
53.3638 -95.2212
74.6416 88.5747
73.5853 -91.171
76.9967 -84.0972
75.2669 -81.114
84.3013 91.3679
72.7247 -98.9571
80.548 -95.7431
87.3107 -91.3282
85.2796 -83.4787
89.9899 -87.9795
94.858 -92.3324
88.2829 -96.0354
92.4801 -93.4161
90.0767 -98.5685
95.8055 -94.124
97.5744 -97.195
-87.9699 -95.2589
-91.172 -89.3246
-77.6334 -92.5592
-96.8469 -86.1465
-90.9569 97.3569
-76.5941 -93.0185
-74.869 98.9295
-69.1472 -87.5142
-72.6822 -94.0286
-76.767 -85.3811
-90.4902 -98.1406
-75.9507 -81.0384
-64.6531 -98.8366
-66.9756 -97.0027
-67.1536 -94.5313
-55.2842 -94.2922
-62.2358 -97.609
-68.6626 -94.485
-65.7167 -85.4626
-61.8204 -90.6441
-61.7712 -79.8422
-58.7601 -76.26
-59.5017 -86.7812
-52.0749 -85.6159
-59.5085 97.026
-42.1662 92.5313
-39.6104 -87.0502
-40.0111 92.9276
-35.5166 -98.6199
-47.805 -92.955
-54.089 -94.6555
-27.2863 -92.0208
-43.6679 92.9546
-31.3106 -82.4967
-14.7045 97.0852
-26.9335 -93.0503
-16.9375 -92.7267
-30.1135 -81.9197
-18.265 -88.2741
-20.4548 -97.3916
-24.9416 -95.1601
-23.3939 -92.5602
-11.2806 -98.1132
-19.6362 -95.8634
-7.40186 -93.0497
-1.22642 -91.6907
3.59247 -91.3484
-3.38301 97.1817
-8.09263 -96.1818
10.9164 -95.6532
3.95309 -88.9349
11.0746 -86.0062
14.3586 -82.5436
13.2423 92.8727
6.83547 -90.7587
13.2027 -94.0971
14.2942 -89.5127
34.2762 -90.6425
19.2027 -82.4463
29.6413 -98.1102
18.5769 98.2656
23.7508 -88.5873
29.2084 -82.4982
31.5224 96.9103
30.1254 -83.1372
26.4773 -94.2838
44.4234 -79.3653
39.4778 88.6934
27.684 -87.405
28.1924 -90.2823
41.9697 -83.7131
38.1113 -85.2694
48.4357 -92.8397
36.6764 -94.4593
47.5521 -94.5405
49.4619 -80.6516
72.2585 -88.478
60.9816 -89.9245
57.9282 98.5867
68.8485 -95.9495
47.8036 -87.0616
82.2943 -92.064
73.8839 -89.5775
68.2929 95.6701
70.7899 -90.8531
73.9945 -95.8526
66.7849 -91.7151
67.7279 -88.7609
75.9605 -91.5808
85.4252 -96.4998
82.8429 -87.0952
76.1881 -94.7965
70.1519 -85.0945
91.0966 -89.9897
95.9075 -85.8664
93.3887 -89.6836
-97.9313 -78.9942
-90.7146 -93.2973
-97.2375 -82.99
-98.4247 -91.2605
96.0837 -88.9894
-94.053 -88.9497
-82.4606 -91.4538
-84.1326 -95.751
-92.9333 -92.3577
-89.0844 -95.4233
-77.4778 96.8519
-84.6336 -68.4135
-72.9273 94.2012
-81.9364 -96.5027
-72.7334 -90.3015
-67.2991 -75.4795
-88.629 97.631
-69.7459 -94.6134
-61.5841 -84.2212
-75.4891 -88.2354
-66.3348 -84.5134
-45.3664 -93.4111
-62.9682 -83.3992
-60.2403 -79.6438
-60.2542 -72.3895
-63.2591 -94.3733
-51.7139 -96.4686
-53.5338 98.5416
-56.6385 -84.2302
-48.2148 -88.2968
-52.3951 -88.2179
-51.7011 97.2452
-47.5879 -90.7185
-45.1207 -90.8579
-42.5536 -84.8413
-32.7066 -82.33
-41.7394 -82.6413
-36.0799 -82.4384
-33.7109 -97.299
-28.5325 -78.7186
-23.0064 -94.3573
-14.8967 -85.6088
-26.768 -95.1429
-22.153 -84.2495
-11.5219 -84.9809
-13.0362 -86.8899
-4.79358 -85.5721
-18.8597 -91.6125
-6.29502 -93.6235
-5.83703 -82.0556
-6.48116 -88.51
-0.0377301 -94.66
-0.0237023 -93.2317
-8.80822 -91.4275
-7.10022 -90.7291
-9.94562 -79.0438
7.14505 97.5857
13.0188 98.5211
0.917366 -82.051
3.22882 97.2272
18.0553 -89.3647
12.7865 95.8885
13.125 -96.914
31.6615 -82.9493
11.5955 -97.2728
25.0082 -81.0744
20.3756 -76.3513
25.396 -90.0877
26.9379 -91.0012
26.19 -77.3979
35.5905 -78.224
30.1711 95.5152
31.9015 -93.7285
39.5457 -73.0374
43.1163 -98.484
43.2432 98.4763
40.815 -83.4066
53.109 -97.1118
51.16 -96.9683
52.1657 -80.1817
55.8715 -91.4779
49.0333 96.6531
54.1981 -86.6951
49.6324 -92.0228
54.8439 -93.6128
59.4845 -88.1773
70.2388 -94.0305
72.3762 -97.0824
69.6305 -89.783
71.3023 -91.8555
64.4673 -89.5565
77.3404 -76.4455
81.1578 -97.703
76.6998 -90.8569
86.7151 -94.9165
96.7425 -90.9461
80.3896 -92.3904
82.7459 -93.9928
94.5435 -91.0912
91.9777 -86.3063
93.5479 -94.2914
-98.8807 -84.0368
-98.5269 -95.1784
97.4013 -95.8502
97.2894 -85.5006
-95.9841 -87.428
94.2907 -76.771
-70.651 -79.3592
-85.8292 -89.6857
-77.7486 -89.7616
-82.9914 -98.4813
-78.8516 -89.0218
-77.5902 -94.9014
-84.3541 -89.5986
-77.2204 -79.2367
-68.9482 -85.4124
-71.3836 -94.3254
-64.1857 -96.3962
-67.9696 -93.0895
-58.6493 -91.6097
-64.5771 -82.2089
-73.0909 -81.6256
-50.128 -82.8098
-46.4447 -88.799
-52.5738 -92.7976
-49.7118 -79.6863
-49.6666 -88.991
-54.9538 98.6546
-57.78 -88.1964
-60.9985 -96.3562
-45.4571 -98.0189
-51.109 -92.8218
-51.0387 -79.8041
-33.8241 -81.5337
-39.1142 -94.652
-33.1922 -87.1098
-34.191 -88.5785
-25.6825 -88.4117
-36.1555 -86.2636
-36.3323 -90.2244
-30.4073 -92.7305
-11.3543 -93.4221
-15.3053 -81.4704
-18.0037 -80.0107
-30.0921 -90.4543
-31.737 -89.1775
-24.2296 -89.8275
-7.38336 -85.1367
-7.73156 -77.7966
-2.31976 -90.1936
-2.62711 -97.037
-7.24043 -91.7406
-9.23985 -98.4071
-1.66437 -86.8544
-0.027896 -81.2892
2.40158 -89.4486
15.593 -77.7507
6.33896 -75.4889
7.6341 -79.2446
16.6553 -89.3784
20.177 -87.5442
15.4967 -85.7925
16.037 -80.0209
18.001 -95.952
30.1433 -93.5637
24.6172 -91.3306
17.8965 -75.8028
30.8297 -81.2892
23.039 -84.0619
28.6916 -84.393
37.0601 -83.3291
34.9351 -89.55
26.9799 -83.0951
40.0185 96.3086
43.0568 -92.0513
35.4259 -87.7951
56.3553 -93.6639
50.315 -85.6107
46.4396 -88.1125
57.7721 -91.7197
61.8209 -86.1722
43.0863 -87.8071
59.5219 -97.4626
54.8733 -96.3159
55.3396 -89.203
62.7846 -87.1206
55.6204 -87.5933
75.2358 -95.7662
81.9809 -88.8066
78.2729 -92.1654
77.9995 -90.6686
74.2284 -93.6164
77.8823 -97.0414
83.7128 -84.5895
74.5389 -88.4484
79.3553 -88.1898
92.188 -89.873
73.4782 -85.6089
82.8259 -80.4148
93.7329 -81.418
91.0675 -87.73
-96.2444 -89.2202
96.0706 -76.2862
93.2726 -80.4934
94.2454 -75.1935
-83.8645 -94.5914
-94.8841 -95.9928
-88.6951 -97.6389
-85.0545 -85.2143
-92.2295 -86.8808
-81.1603 -98.0409
-84.5686 -93.2975
-87.4579 -93.0958
-75.7966 -90.6531
-73.1034 -87.998
-68.5189 -88.3554
-57.0116 -92.1508
-77.8873 -81.7516
-58.0973 -86.0685
-74.9755 94.3966
-73.9417 -90.3358
-69.637 -74.8595
-62.847 -74.0885
-63.4412 -76.3812
-60.1614 -82.1497
-60.4908 -91.4286
-42.577 -92.6722
-45.0381 95.4374
-61.7378 -94.2116
-46.514 -87.2806
-46.556 -93.4835
-41.3199 -95.0191
-42.5589 -88.878
-42.2633 -95.9411
-41.4639 -93.7108
-36.4616 -94.1465
-42.0107 -77.7806
-40.7832 -84.2687
-28.6592 -90.5401
-45.0734 -78.0116
-22.2783 -95.0405
-17.4155 -89.1538
-18.3531 -96.1898
-16.2474 -80.7068
-9.33156 -96.1455
-7.78507 -88.7121
-13.2236 -77.1945
-19.0114 -76.8602
-9.14144 -76.8542
-12.398 -82.1265
-2.64544 -92.5369
-8.64792 -87.1061
-0.281175 -83.1842
-14.8789 -79.7069
0.354785 -84.7309
14.296 -72.1849
14.0682 -93.2804
-5.685 -76.7345
-1.14774 -75.7087
12.3002 -80.499
20.5229 -66.7977
11.4257 -90.5683
24.0209 -84.509
23.6651 -72.0781
26.0097 -75.1645
17.1183 -77.253
21.1204 -81.6214
19.9179 -77.9398
25.7921 -95.5333
32.3053 -73.5042
19.6904 -84.3091
44.3463 -83.9825
40.1259 -92.7586
46.3887 -89.1747
42.0001 -88.8652
41.3406 -70.9941
47.2481 -78.8188
29.7324 -88.5257
53.3523 -89.7076
55.718 -90.2685
44.164 -96.7331
57.8497 -81.9221
50.8164 -86.557
52.157 -90.7321
49.7139 -76.9983
62.296 -81.1641
62.1674 -91.5022
55.1389 -78.089
74.1391 -84.8109
76.5662 -96.424
78.3841 -89.3958
93.8148 -83.5906
77.3032 -79.3192
90.7742 -76.5533
79.4184 -86.1651
88.0084 -85.3468
82.1422 -84.0236
81.7695 -87.1636
97.6132 -87.7427
94.627 -84.9972
90.0453 -88.9894
-98.6936 -82.7888
95.4425 -78.4119
-95.8378 -83.8195
-92.3007 -80.1267
-85.1492 -79.4039
-91.2121 -91.5493
-85.1081 -74.3961
-98.123 -85.989
-87.1334 -91.2001
-82.5306 -89.6821
-80.3513 -76.3854
-73.9711 -96.2589
-85.9955 -88.6988
-79.4191 -81.8045
-71.7694 -81.6791
-73.9768 -80.8646
-64.4066 -86.3678
-75.7715 -85.2425
-67.2313 -80.8591
-68.1573 -72.1464
-67.8874 -86.4377
-63.1671 -81.36
-55.3081 -91.0464
-56.8295 -72.1669
-59.1717 -81.2052
-49.8046 -84.0996
-42.2552 -89.9851
-57.0014 -77.6522
-40.4198 -98.7096
-39.5054 -84.8189
-37.4232 -87.3902
-46.568 -97.5516
-42.1136 -79.8797
-46.5793 -92.0088
-39.1493 -91.0766
-50.1612 -78.3169
-43.5035 -86.1957
-26.3455 -82.0563
-32.1504 -79.4787
-24.8349 -75.3393
-28.3995 -85.8442
-18.4489 -82.1863
-15.4803 -86.9544
-12.0411 -78.4753
-14.591 -75.2701
-17.5858 -78.1234
-16.2307 -78.3765
-8.35615 -92.4075
9.59534 -71.2631
-19.0772 -75.1391
-9.42597 -84.8686
-2.69365 -80.8813
0.811753 -92.5978
0.0779711 -87.0283
2.83294 -88.5418
-4.41753 -90.546
7.51561 -85.8771
14.5332 -84.5068
7.01897 -89.1241
-6.15693 -77.7039
17.4506 -87.0437
12.1956 -82.9864
23.552 -85.6479
22.6069 -75.1099
18.4954 -81.5855
30.707 -79.606
33.6471 -88.6059
23.3084 -77.3238
35.7992 -85.0702
29.7385 -73.4021
30.8118 -84.7248
36.8054 -75.8794
33.3795 -68.4047
32.7559 -85.4779
47.1217 -93.2304
38.4553 95.6169
53.7169 -91.944
46.4128 -95.437
54.5166 -84.8702
52.4758 -77.795
57.8491 -86.9387
45.3578 -87.6737
52.5379 -74.9095
60.24 -78.8294
72.5767 -89.7698
66.6436 -83.0172
71.5491 -93.7953
64.7237 -88.2142
71.0612 -82.6255
77.6222 -85.7896
87.9778 -75.5616
73.036 -74.4278
90.8885 -74.12
84.8769 -90.0541
79.156 -80.5941
74.4924 -68.7458
80.8863 -83.4343
81.6155 -90.7209
-89.1628 -81.6576
88.0496 -80.0221
97.7018 -80.3076
-96.7421 -74.3345
-89.4531 -92.9217
-89.9594 -90.9958
-93.9004 -83.7938
-92.6845 -89.6143
-78.8162 -93.1486
-79.6241 -79.3585
-86.2271 -81.2711
-83.6662 -85.0979
-84.4534 -70.0856
-79.584 -73.899
-86.1607 -75.5165
-79.214 -76.8031
-72.4796 -79.5441
-69.4324 -80.8416
-66.9236 -68.4504
-70.6827 -86.1615
-63.0701 -85.108
-64.2155 -80.5002
-68.8318 -77.9363
-56.9736 -63.168
-49.3912 -74.3162
-59.1846 -83.9555
-51.4883 -73.5146
-52.9347 -86.4526
-49.6007 -95.0627
-53.0093 96.2993
-52.4966 -78.3421
-49.1216 -86.0601
-51.8402 -76.1805
-40.6616 -81.6961
-37.5516 -91.8111
-44.8941 -95.3206
-35.5378 -65.3905
-36.5332 -83.4263
-36.3891 -87.9515
-35.0583 -80.1896
-29.1216 -88.9856
-27.224 -86.5633
-27.853 -81.1655
-10.4438 -89.562
-22.1968 -85.3601
-13.6746 -71.7867
-19.8692 -82.3747
-15.8805 -83.1169
-20.2223 -77.3595
-8.77644 -85.898
-10.6038 -81.1894
-4.99691 -84.0157
-20.35 -83.5274
-17.1545 -72.5708
-7.33077 -78.8777
6.11334 -82.0125
5.29932 -76.9326
8.54133 -81.1116
14.2436 -86.636
5.60978 -62.6059
13.2689 -82.9701
4.03909 -83.1893
18.872 -92.5679
20.485 -89.3029
15.456 -75.3743
10.3376 -87.1036
28.2491 -72.6139
19.3824 -75.1394
20.3246 -82.8176
29.0722 -75.0592
27.577 -81.9363
24.8875 -80.0585
28.9692 -89.2415
30.911 -74.2429
33.9375 -70.0628
48.9511 -90.0976
44.2455 -88.4295
44.5585 -75.6427
39.1137 -85.301
49.9482 -82.9651
50.8623 -82.4441
53.4358 -81.502
66.3354 -63.4729
55.5252 -80.1167
43.1014 -79.562
50.9634 -77.2712
60.9103 -87.8299
56.4943 -84.3099
64.8814 -74.4489
63.6001 -90.5889
63.1842 -85.723
72.8271 -81.5777
61.2903 -88.8681
81.0998 -82.4243
77.2877 -80.972
81.7684 -61.621
91.7742 -76.3561
79.9537 -74.9022
98.0351 -90.4425
77.0472 -77.6394
87.3834 -74.462
97.902 -77.0285
97.619 -84.0189
-98.2995 -88.6011
97.7484 -74.2931
-93.4304 -87.5164
-97.4536 -85.2486
-87.6807 -89.8654
-91.0082 -71.0407
-71.8229 -86.0833
-86.3001 -94.6514
-77.8897 -86.2227
-78.7766 -82.9922
-83.7284 -92.2391
-83.3161 -87.652
-72.3769 -84.0529
-77.5042 -78.0705
-75.3906 -83.4404
-80.0504 -80.2931
-66.4812 -78.0921
-65.8979 -77.1172
-62.1297 -81.5139
-52.1464 -72.4544
-76.5907 -71.9811
-57.0048 -79.6068
-60.3416 -64.1952
-59.1378 -79.4221
-52.132 -74.8494
-49.1877 -78.0903
-40.7033 -69.4068
-45.5838 -85.2605
-38.2097 -72.6781
-40.0904 -73.0249
-43.302 -79.0766
-47.8122 -82.6356
-40.8727 -77.1943
-44.6909 -87.6453
-34.4667 -64.8333
-28.9007 -75.0123
-33.2768 -72.1508
-32.0729 -70.5526
-16.8434 -85.8739
-25.831 -86.4564
-26.1975 -83.412
-14.7838 -70.7136
-22.5234 -79.4895
-31.6053 -75.3908
-12.0078 -72.3475
-21.2817 -81.2876
-8.107 -80.3781
-11.9194 -90.1597
-3.97685 -79.2001
-16.3329 -81.9515
-5.49062 -89.9326
6.08824 -84.1039
1.12149 -71.8144
0.120084 -71.3383
2.67401 -76.9123
12.3629 -77.4389
12.4534 -86.841
15.1724 -87.9992
14.2909 -75.5232
16.5732 -74.6382
21.9942 -95.8714
22.3554 -78.4629
17.1421 -80.0974
26.5548 -82.0085
32.6107 -82.3105
27.0517 -74.3875
20.8162 -63.156
31.9637 -57.29
26.9111 -80.3152
42.777 -81.1871
31.9151 -84.0079
38.3134 -83.837
39.8965 -78.7486
41.4313 -75.3446
45.7801 -74.5834
50.8981 -84.5594
54.1754 -76.6068
57.705 -79.3735
68.1176 -58.2941
56.0131 -72.5724
48.3289 -80.0897
60.102 -74.2305
50.2002 -88.9214
50.1287 -81.6415
64.1748 -95.0944
69.1241 -83.5985
60.466 -86.7712
64.4903 -77.0911
81.4665 -81.0131
79.6315 -90.8081
78.0172 -83.5244
86.0259 -80.0185
80.275 -81.5307
90.1448 -81.6641
88.9935 -85.97
83.9972 -77.2479
90.2354 -86.287
-93.874 -74.0008
97.6636 -78.3066
-95.5558 -85.8931
96.5208 -73.8257
94.6007 -72.8666
-90.8763 -61.0086
96.5795 -80.2917
-87.396 -83.804
-97.334 -72.1035
94.2878 -87.5997
-82.0801 -69.8984
-87.5911 -80.9154
-86.7351 -73.8929
-90.0086 -63.8882
-85.3481 -83.3392
-67.3919 -82.0754
-67.2621 -73.731
-70.8285 -73.0216
-78.1296 -73.7651
-71.9342 -74.3483
-66.8903 -83.3811
-70.7027 -78.2012
-57.8201 -59.6284
-60.9895 -69.8116
-65.7925 -71.447
-57.5273 -75.0551
-50.3843 -91.9955
-52.4301 -89.2449
-45.0279 -73.0301
-51.5811 -82.895
-43.9587 -85.1595
-56.0952 -76.5099
-42.7943 -94.4769
-46.9323 -83.589
-46.1153 -77.1405
-35.9662 -84.8156
-40.3865 -78.1632
-35.7569 -74.5854
-27.9971 -72.3099
-36.3917 -79.7288
-32.5442 -77.6783
-28.3093 -88.0167
-11.7347 -87.5577
-22.334 -82.4616
-16.0144 -74.5168
-34.6447 -75.1359
-20.3471 -78.8646
-23.4455 -81.8326
-18.0158 -76.5194
-20.6264 -72.7038
-12.47 -69.5679
-2.50753 -75.4948
-9.50208 -88.5052
-11.8109 -70.5872
4.51945 -70.3277
8.47564 -68.3277
3.81037 -68.9688
16.0654 -76.3209
13.1315 -70.3671
11.0331 -64.2434
13.1423 -68.4823
15.2344 -69.1052
8.12544 -82.9982
12.9674 -81.499
15.8614 -83.1758
11.4623 -74.9835
15.7099 -72.782
16.7135 -67.4201
34.4518 -68.2174
22.7683 -69.6082
37.6951 -78.8021
21.1412 -77.7449
36.9435 -88.0417
44.761 -85.1715
31.4399 -78.9103
35.6403 -73.8994
35.2703 -86.4519
41.0924 -69.2024
35.1616 -74.8908
45.8379 -79.2652
43.0538 -73.9071
59.4117 -62.5843
36.3617 -71.6876
46.5719 -86.3229
67.7827 -87.4435
60.2367 -70.4307
67.3859 -79.3631
71.1884 -77.2229
59.0341 -84.8522
57.5864 -83.3075
69.5121 -82.3352
74.4975 -56.8143
64.1267 -85.3334
64.784 -79.2482
66.3589 -84.3052
81.0539 -69.3733
-98.9237 -68.8881
89.7779 -77.473
93.5705 -67.9072
89.7953 -85.0258
92.9535 -91.7819
93.1437 -76.9251
96.5645 -69.3564
-94.3822 -86.1274
96.0501 -71.8895
-90.2195 -77.3288
-82.6109 -80.8417
-86.0225 -78.3418
-82.6347 -79.6467
-87.4338 -70.886
-88.5818 -85.4629
-91.5789 -77.0224
-79.3717 -85.0066
-68.3404 -81.6207
-75.9358 -76.3079
-74.2869 -69.6899
-73.3345 -84.7215
-71.2512 -83.8115
-75.108 -72.2005
-56.5843 -69.4518
-73.5577 -75.3321
-72.6666 -77.0406
-39.9818 -74.8958
-66.2075 -76.0114
-65.3992 -69.2962
-53.0627 -73.464
-55.2108 -84.3788
-51.6709 -83.9857
-51.2933 -78.7381
-54.3338 -67.4746
-49.2509 -81.7786
-37.1813 -63.7066
-33.563 -67.6382
-39.0459 -80.029
-43.0185 -74.5288
-36.0603 -81.1752
-31.2362 -55.6019
-29.3055 -78.0075
-23.902 -74.1313
-35.1503 -61.0148
-29.3475 -73.0048
-30.6405 -68.5624
-29.238 -67.4947
-35.1601 -82.0499
-21.8004 -77.3648
-27.4521 -84.9216
-20.6116 -66.1776
-26.3402 -71.4162
-27.6833 -74.8597
-10.7998 -77.4515
-11.7172 -76.5778
-6.70673 -74.2684
-2.5103 -69.5435
4.6152 -72.9601
17.5772 -70.3731
9.4239 -90.2485
-1.5809 -78.5563
9.34334 -65.5753
3.80571 -67.4362
9.28654 -74.0637
10.4219 -70.5765
25.4042 -65.5003
19.4912 -71.638
14.9619 -80.0872
21.6585 -74.307
20.3142 -74.3144
16.2241 -66.4623
36.2604 -62.9712
31.598 -72.206
24.2241 -73.3643
32.1523 -60.5388
20.3557 -69.8895
40.1922 -70.0851
40.3474 -80.085
42.9234 -77.1275
45.6765 -83.8148
38.1272 -72.946
45.032 -89.6558
28.2625 -86.1374
51.4304 -71.4841
48.3773 -78.8562
50.1463 -75.9188
57.3926 -77.8687
63.9628 -65.4151
62.7536 -66.2505
57.6056 -90.329
59.4461 -75.0541
65.8954 -79.8849
61.8712 -83.7191
59.9764 -83.5028
73.5466 -83.2068
78.2335 -87.5395
67.4089 -78.3318
63.1889 -82.5363
81.8295 -79.3439
74.7205 -77.2531
93.4118 -73.2587
-98.4925 -80.9667
83.1005 -72.9881
91.9184 -83.3472
-97.8637 -62.6334
93.3004 -69.7824
-82.2376 -86.3168
-97.5858 -68.9287
-87.7443 -73.757
-91.2478 -58.637
-91.483 -78.9411
-92.7479 -85.5238
-91.6245 -69.4864
-88.1828 -79.392
-91.3229 -72.8145
-89.8964 -73.0323
-81.7255 -85.3357
-76.1375 -69.4032
-83.0574 -96.6802
-79.9912 -61.9956
-85.3112 -90.9659
-64.1853 -83.705
-78.5425 -78.831
-68.4933 -68.1119
-71.5241 -80.3965
-73.3702 -78.2952
-69.9067 -72.0663
-55.8618 -86.613
-57.7773 -80.8838
-54.6847 -79.6757
-65.863 -81.3473
-45.7425 -76.1977
-53.1123 -77.3644
-44.4634 -75.2596
-34.2354 -79.2004
-46.6729 -69.9727
-37.3194 -76.5715
-44.6383 -71.3913
-42.9798 -76.275
-39.2814 -73.9257
-39.2998 -66.2641
-36.1042 -58.3551
-39.3167 -57.209
-37.8636 -65.8117
-27.7202 -83.367
-19.1861 -89.5999
-22.668 -86.4918
-15.6159 -57.1439
-27.0708 -80.1402
-32.8214 -80.5378
-19.707 -88.3839
-20.5323 -71.4598
-24.4697 -81.998
-4.82091 -79.7285
0.282037 -74.4938
2.28691 -70.1002
-9.84777 -80.5263
2.12545 -73.625
9.24743 -75.9531
-1.69114 -70.1947
11.2111 -78.3643
-10.2421 -74.1104
5.5173 -64.5069
0.16678 -60.9826
10.2029 -77.768
16.9531 -65.0744
11.2285 -81.8405
18.0713 -83.7968
26.8772 -67.0231
13.3785 -77.7385
19.294 -69.5433
24.5195 -61.4517
28.1644 -69.766
29.308 -70.2067
29.3217 -67.4322
32.7073 -74.4881
33.5839 -63.4096
39.1251 -79.855
31.115 -59.1808
30.0793 -64.1439
38.1929 -81.0217
63.4407 -67.9132
53.12 -76.9525
39.4046 -71.1489
51.9755 -72.3657
47.4831 -76.2856
50.7821 -75.0661
49.1923 -82.0255
71.7173 -70.4772
55.5112 -76.8892
60.8928 -82.1412
54.2663 -75.4186
76.2534 -78.8126
59.5955 -60.0035
73.9768 -58.8539
65.4878 -81.7831
72.7061 -79.3668
62.9922 -78.8484
89.3802 -73.8637
83.6093 -76.1881
86.6415 -83.7391
96.5576 -67.9016
81.2358 -67.973
85.8891 -74.4119
93.2318 -78.3307
77.8583 -66.5224
96.1772 -81.2147
98.8902 -69.8876
98.3989 -63.0884
-88.3505 -67.108
-84.2904 -76.9455
-85.2742 -66
-95.077 -71.3296
-82.3771 -71.0285
-81.1438 -77.0419
-95.3145 -60.4019
-88.9029 -74.1261
-79.318 -68.4263
-82.5297 -78.1058
-78.3423 -80.6698
-70.7631 -75.4934
-79.8948 -75.4951
-74.7336 -81.929
-66.0049 -67.2461
-58.0328 -68.3736
-60.9434 -68.7189
-63.8737 -73.5174
-61.3001 -64.8871
-59.4715 -70.2312
-47.1693 -73.6799
-50.4301 -80.8474
-53.2609 -69.0804
-46.5284 -72.7256
-51.1647 -55.0814
-44.2904 -78.9872
-47.526 -79.2088
-35.507 -76.3983
-46.1718 -82.4562
-38.7048 -54.8028
-37.4882 -69.9753
-44.5898 -73.9982
-35.6235 -66.8351
-31.2412 -69.891
-40.2878 -65.2246
-36.5797 -78.2232
-31.1263 -64.8113
-26.1646 -66.9745
-17.3744 -90.4531
-28.9017 -68.937
-25.032 -60.4184
-34.121 -71.5787
-11.947 -66.6234
-25.2468 -84.7047
-19.5176 -69.9381
-13.6945 -70.7365
-0.643088 -87.9978
-0.786022 -77.6749
3.55056 -72.3174
7.11634 -68.4096
10.8557 -73.6149
10.8927 -79.9825
5.12703 -78.552
-4.30797 -52.7884
8.44081 -58.2604
18.8059 -70.478
17.8169 -58.6432
16.4819 -70.227
6.85618 -65.5754
23.8672 -70.0325
17.7125 -67.4872
28.3916 -61.5646
19.8972 -72.7765
38.2838 -71.7832
30.3039 -58.1169
39.2183 -75.2917
22.2977 -71.7838
44.0329 -71.8129
42.8426 -67.1177
30.6907 -70.4173
46.0928 -67.817
48.82 -75.6573
45.2777 -71.2723
39.5336 -69.0597
45.1626 -65.343
59.4436 -56.7151
54.5596 -69.962
55.623 -74.6259
57.3589 -69.7865
56.7153 -81.3421
69.3833 -61.9435
62.9923 -83.8396
65.2421 -66.6257
58.1304 -67.274
65.8869 -85.4655
67.7184 -74.431
68.5498 -78.706
62.0335 -79.4353
88.4132 -71.5697
78.4387 -65.5844
79.2972 -78.7526
97.7202 -71.5414
86.0579 -70.3479
77.5439 -73.4059
84.8777 -80.6071
90.6795 -78.7842
-96.5725 -70.4574
-92.1562 -64.9919
98.2521 -68.2779
-98.6644 -74.2915
-91.1674 -64.8756
-96.765 -81.3167
-93.3897 -63.8323
-79.6415 -72.5366
-92.1345 -73.9534
-75.2489 -70.7332
-93.3362 -70.9078
-87.7331 -68.2485
-76.4843 -67.4199
-75.2946 -74.2622
-77.3319 -76.0098
-70.9669 -71.9216
-69.0377 -62.1946
-70.9772 -67.0182
-64.7686 -73.9913
-77.3031 -59.1382
-57.1246 -73.9115
-64.7912 -61.4059
-62.5025 -54.7892
-62.4971 -71.6682
-61.0373 -74.387
-66.1956 -79.5636
-35.9007 -69.8268
-55.2035 -69.4465
-39.4852 -63.2101
-46.0057 -73.7538
-41.0959 -70.6095
-40.9595 -66.9687
-36.2031 -61.1614
-49.181 -73.1208
-36.8607 -85.3878
-40.7244 -51.1685
-30.6365 -73.4875
-25.4004 -72.9738
-29.1099 -54.3388
-22.4204 -65.8999
-34.6153 -63.2021
-31.3551 -80.9285
-11.6879 -61.3628
-33.3915 -78.667
-29.1909 -74.0424
-23.8394 -66.5149
-22.8887 -70.1815
-19.4016 -61.1976
-11.765 -74.4298
-5.18022 -69.6443
-1.31686 -82.6763
-14.7586 -72.8588
-9.23489 -78.343
-0.0653121 -78.3757
2.74876 -61.706
2.31989 -75.15
0.222845 -58.5841
3.95934 -77.0782
13.0308 -78.8229
13.2576 -64.8634
10.6268 -65.5742
16.5089 -57.1355
12.8332 -67.1888
26.8776 -68.8582
16.5241 -63.4544
26.0017 -71.2478
22.9846 -68.0586
27.5521 -65.5908
20.5471 -64.7526
25.7757 -62.5998
36.4067 -74.6564
29.5889 -60.3587
41.3862 -73.3439
40.8295 -77.376
50.3059 -65.9151
43.8667 -65.4014
48.4938 -67.4003
40.2768 -65.3685
54.4478 -83.7516
49.5401 -69.501
61.4267 -70.2818
52.5568 -70.8631
61.9224 -46.8197
54.0955 -74.4366
55.2863 -61.5053
61.1916 -76.5659
63.7475 -49.8103
66.4906 -74.5742
60.2412 -65.3823
73.1499 -70.9175
79.2974 -82.4229
69.0013 -72.1856
68.3741 -69.9461
71.2269 -69.2531
84.0621 -79.2577
78.322 -76.1657
88.6938 -64.3111
95.3424 -62.7635
98.0423 -61.7801
-97.25 -66.9379
-95.6473 -65.3358
88.1893 -72.8628
-96.0549 -75.5922
-93.6504 -72.0627
-96.2817 -79.3201
-87.1208 -82.3293
-90.4867 -78.6775
-86.8482 -88.0703
-84.3099 -49.7179
-86.0029 -68.2559
-86.9089 -76.6475
-78.4381 -75.6341
-67.5125 -70.1462
-69.2618 -73.4341
-71.7748 -65.4327
-77.7793 -63.1042
-70.4948 -62.1974
-70.7053 -68.1814
-70.9027 -65.9617
-72.1056 -68.5474
-64.9322 -76.446
-56.0062 -70.8406
-59.4435 -75.4384
-51.74 -71.1423
-46.5834 -74.9503
-59.1179 -59.9726
-44.9121 -81.402
-55.3258 -61.7931
-56.8114 -61.84
-57.6434 -69.5237
-56.4288 -81.5098
-45.2418 -69.3888
-54.8524 -70.7655
-42.3191 -63.7455
-38.7005 -50.6161
-29.9475 -61.7696
-37.6406 -62.3679
-22.4568 -51.2674
-40.9651 -64.3795
-27.5989 -63.4903
-30.9664 -77.0336
-27.5998 -78.3705
-20.5556 -56.9063
-23.6844 -80.6697
-10.9603 -75.3368
-36.1618 -71.8678
-15.3661 -64.2182
-11.4849 -68.1591
-8.48886 -75.2621
-9.74078 -71.3483
-1.75842 -84.48
-5.6916 -74.3805
-9.5898 -82.0186
1.05461 -65.4442
1.62188 -67.9367
-14.2277 -78.0804
3.23784 -46.4845
9.46222 -66.8771
-1.04277 -58.4108
8.5708 -61.2733
7.91003 -54.891
12.3482 -63.9085
0.490774 -61.9613
12.5539 -71.8422
14.9333 -67.2709
27.1423 -64.3148
32.7422 -65.3109
35.4482 -70.4496
38.8741 -69.8615
40.4305 -61.8307
38.0847 -56.8241
41.498 -63.6114
37.4015 -62.9594
32.1399 -70.4257
40.1046 -67.7495
40.4284 -64.2166
35.2868 -66.2656
47.7024 -71.2268
44.6543 -73.5547
48.6625 -72.6342
56.786 -49.8273
48.1787 -60.7848
71.675 -64.1768
63.1174 -62.4114
64.3009 -57.4698
54.0667 -68.2319
69.4935 -64.2286
67.5619 -72.2821
75.4923 -75.6272
72.6635 -64.4216
78.6963 -74.4783
86.7298 -72.4673
80.8794 -70.9609
67.9351 -81.8989
79.9547 -61.0664
76.3067 -66.2335
75.6621 -57.7456
71.9828 -62.7619
74.5617 -76.1937
91.8288 -73.3092
-98.5062 -72.3275
93.2035 -71.7664
87.7152 -64.583
92.182 -77.8743
95.5879 -56.2446
-90.474 -68.7021
-85.7381 -69.9045
-87.9788 -63.4327
-89.4606 -59.9706
-89.5377 -80.251
-87.201 -69.1037
-78.4296 -65.3188
-76.3227 -66.3113
-73.0758 -83.3116
-75.0091 -67.2428
-72.8706 -56.6236
-66.9036 -59.4527
-70.2989 -57.443
-69.2647 -51.5237
-74.9841 -68.5547
-62.5639 -68.3908
-66.8679 -71.8164
-62.1709 -63.7322
-69.8473 -66.9801
-56.1451 -74.6158
-55.9648 -58.4399
-48.2338 -68.6622
-31.6697 -66.4496
-33.0385 -56.7931
-45.9508 -70.7207
-38.4624 -75.075
-54.1826 -66.3378
-26.1103 -60.4685