ITEM: TIMESTEP
31600
ITEM: NUMBER OF ATOMS
10000
ITEM: BOX BOUNDS pp pp pp
-5.7205700000000000e+01 5.7205700000000000e+01
-5.7205700000000000e+01 5.7205700000000000e+01
-1.1441100000000000e+01 1.1441100000000000e+01
ITEM: ATOMS x y
-53.6551 50.6616
-50.3068 47.7809
-52.4143 55.1266
-52.3666 53.8931
-49.3838 56.1817
-48.1851 -54.5356
-43.1545 55.1291
-45.0941 -57.0979
-41.2538 55.9264
-37.8484 -50.9558
-35.0132 -53.3991
-43.7078 -55.2843
-39.4944 -56.5813
-35.1443 55.7094
-38.6041 -53.3518
-28.6566 -48.6797
-29.3292 -51.7984
-29.9095 51.9421
-34.214 -56.3681
-29.3303 52.7789
-28.6563 -54.9037
-27.6797 -51.4795
-27.8421 -57.1405
-29.4422 -56.3749
-23.5384 56.3638
-19.8474 55.5739
-24.358 57.06
-18.951 -57.0397
-23.5935 -56.584
-11.1601 -50.1977
-12.2948 -57.0301
-10.2183 56.7584
-12.4343 55.8442
-8.23856 54.9328
-8.68959 -48.2468
-6.88137 55.0376
-3.77851 56.8067
-2.10029 -52.848
-5.72722 -56.4969
1.97399 -53.6744
-1.79923 -55.2064
-0.944656 -53.3198
0.303578 -47.2004
4.12573 -44.9673
5.45021 -44.769
-0.245143 -54.1882
0.46317 57.1409
7.37241 57.1949
5.1962 50.7957
4.98152 55.5605
6.61283 -50.4571
5.11149 -54.1966
4.7212 -45.9037
10.0735 -55.4091
4.24328 -56.3732
18.2938 54.0789
16.3944 54.4285
17.0202 -55.5668
21.2285 54.6813
20.2755 54.1489
25.8747 56.8867
24.7844 -55.0049
20.19 -54.2723
19.6478 -55.149
28.8425 56.4018
29.4331 53.3175
32.6083 47.1973
31.3538 50.6375
36.6233 55.0122
36.226 52.4168
30.613 53.1537
34.6182 53.6259
32.8564 52.3318
37.9212 -56.2441
37.0813 57.1919
36.6468 -55.655
38.1872 -53.8447
39.8329 -56.4141
42.3334 -54.9639
39.7329 53.8062
40.9869 51.828
47.16 -56.9409
47.8862 -53.4253
47.2907 56.4783
49.014 -53.7419
50.8583 56.5307
48.5784 -52.4843
52.1724 51.9108
50.1246 50.4075
46.7603 46.4636
54.1144 47.3797
52.9428 46.6421
51.1843 48.1138
52.5292 53.9162
53.059 51.4273
-56.5805 46.221
55.2937 49.8688
-52.8695 47.9679
-50.6743 52.3592
56.2686 49.4693
-52.6759 51.3882
-53.3709 54.3311
-51.0597 -55.0989
-53.0779 52.9435
-52.6637 -55.822
-50.4201 56.373
-48.8753 -53.3389
-45.206 -54.4407
-41.1551 -55.6541
-44.4127 -52.2474
-39.1869 -47.8139
-38.8472 -55.8264
-32.6129 -50.029
-35.3318 -50.2473
-33.6567 -47.839
-28.5245 -45.7025
-30.3696 -51.2288
-27.6384 -55.4272
-31.5289 -52.9294
-25.4849 -49.0742
-27.5391 -52.6446
-28.9048 56.1425
-27.1195 54.9358
-23.3132 -52.4373
-25.0208 53.9752
-28.238 52.9276
-22.7667 -56.0392
-19.7211 56.6042
-19.6871 -56.2924
-10.8608 -56.8577
-10.9171 -54.4352
-21.7386 -55.6038
-11.6709 -56.0346
-6.65149 -55.5152
-6.81088 -54.3702
-12.0313 53.4402
-1.26549 -54.3119
-3.6846 -55.6201
1.63008 -52.6093
-0.348854 -51.2564
-0.258115 -56.4361
0.0705476 -52.3372
-2.78022 -50.4004
0.221062 -49.2509
7.02571 -45.9023
3.89497 -54.4056
4.70784 -47.5277
3.96012 -52.7457
7.7478 -50.0155
4.87595 56.8231
6.13231 -54.7534
8.65908 54.892
7.19493 -53.8364
11.4815 -57.1787
13.2106 55.0337
11.7649 54.001
17.3422 54.8682
19.1478 -56.1327
22.6836 -51.0028
20.2124 -53.2559
21.2846 -56.2939
26.3309 -55.8596
19.1393 -54.2285
26.5275 55.9552
26.1784 53.707
23.6387 57.0442
29.5535 -56.9337
36.1061 -54.4171
36.1576 53.4595
41.0245 -56.9678
38.2248 53.8807
35.2943 -53.4382
37.6421 -51.4516
39.2436 -54.5254
40.9818 -52.2519
36.6934 -46.483
39.5769 55.6551
44.1023 55.9274
39.5168 -51.1954
46.4856 52.0164
43.4783 -49.7192
46.1482 -57.1128
51.6403 -55.0153
46.8905 -52.384
46.4381 -56.1234
47.0927 -54.2635
49.4025 49.1697
51.1491 -49.8276
51.5866 -51.5588
50.2561 -47.1659
51.5388 46.6602
51.0285 50.8141
50.6252 49.1764
53.4522 52.7601
49.7627 56.6946
-57.1871 50.1147
55.3024 45.0537
-54.9827 49.2348
-52.6333 56.2351
-56.9548 48.666
-55.8392 50.383
-53.832 55.4709
-53.7297 -56.4639
-51.3096 -57.1543
-52.277 -53.4946
-50.0568 -52.4759
-56.084 49.2147
-42.3549 -53.7697
-44.9519 -51.1296
-41.4374 -53.2438
-41.444 57.043
-36.727 -49.3199
-33.5214 53.4258
-35.6559 -47.2272
-27.6821 -47.589
-33.5646 -51.2205
-24.9002 -50.0749
-26.6858 -51.223
-27.5041 -49.2063
-30.5648 -52.5255
-28.3912 -49.9068
-30.9926 56.494
-26.3106 53.9911
-29.308 -53.2046
-24.6382 -56.2359
-25.3889 55.0161
-26.8794 -56.4645
-25.9007 -56.1582
-16.5979 -52.6546
-13.0375 -54.5416
-15.6518 -52.9619
-12.1203 -54.0155
-8.90587 -53.8031
-14.8127 -54.7753
-5.62488 -54.2824
-6.72687 -56.695
-4.73768 -55.8568
-4.56811 -54.7799
-5.6296 -53.1592
-3.56024 -51.066
-3.66727 -53.0892
1.84405 -50.4265
-3.22137 -52.1311
-1.24513 -48.2392
2.98447 -40.8926
2.85859 -50.8775
4.7444 -49.0127
10.7857 -50.5274
5.45194 -50.7371
5.57763 -49.6492
8.7194 -49.7394
12.8929 53.7767
4.70374 -55.3514
9.49574 -53.9879
10.5855 -56.5364
22.309 -55.8987
19.2023 55.9238
17.1021 55.866
15.4773 56.3528
18.654 -51.3142
17.0547 -54.3026
20.3273 -55.9956
32.9596 56.4899
34.9936 56.919
30.5689 -57.0352
30.3105 50.6318
34.385 -54.4637
34.7489 51.1563
33.478 55.4628
34.605 -52.1414
38.5343 55.8793
35.2927 -55.0498
41.3139 -55.5964
38.7776 -56.7581
30.9428 -54.9698
30.8049 -52.8339
38.6497 -55.5111
31.2066 -50.5629
31.3869 -48.52
40.278 56.7084
41.3696 -54.2744
43.0583 56.4796
48.0891 -56.4755
41.8421 -53.2099
48.722 -55.6905
48.0426 -50.5554
45.5775 -54.0669
54.6773 -53.0051
50.1966 -53.6715
53.4117 -52.9779
49.8174 55.4877
48.9315 50.3001
53.9498 50.9801
56.5326 53.4342
55.7321 54.1127
50.9616 55.5453
-51.662 51.4231
56.6758 51.097
-54.6217 52.7158
-54.5004 54.7305
-54.6615 47.3304
-50.2609 -54.5025
-49.9215 -56.9428
-46.9384 -54.2965
-47.7995 -51.5127
-49.0252 -48.5629
-52.3914 -56.8604
-50.7358 -53.2574
-46.1186 -55.1993
-41.6028 -54.6447
-36.2937 54.0652
-40.069 -53.8886
-37.3168 -55.1836
-35.4975 -54.5965
-27.5842 -50.4915
-33.6794 -55.0733
-29.6401 -46.1809
-29.6782 -48.8349
-18.0928 -51.3504
-30.3962 -55.823
-22.9041 -48.0789
-25.4431 -53.4368
-28.4646 -52.2908
-30.6667 -54.8604
-24.4352 55.5962
-23.9891 -53.8385
-25.4057 -57.1912
-11.8295 -55.0527
-9.81937 -56.607
-10.3455 -50.8289
-8.76934 -56.1933
-7.08126 56.7528
-13.241 55.1846
-8.90452 -54.9973
-6.66634 -53.0306
-5.62958 -55.35
0.842711 -51.6829
-8.30746 -50.2218
-3.6814 -54.0918
-0.943115 -49.6888
-5.50227 -49.9945
-1.38054 -51.1683
0.142713 -45.0304
-2.17893 -47.7441
3.28963 -48.6114
1.4311 -44.4882
11.6701 -44.6215
6.63735 -42.7366
6.97798 -43.7179
14.1442 -43.7165
10.5283 -49.2702
7.75475 -48.9688
5.71729 56.263
6.34052 -57.0475
6.10546 -55.8448
12.1544 55.1994
17.778 56.9245
19.6765 52.6561
15.9163 -53.5216
18.0194 -52.2049
26.0714 -53.743
23.6342 -54.4108
22.7634 -56.7946
32.122 55.59
31.4546 56.5355
34.4712 -55.6807
31.5095 54.6934
33.166 -55.391
34.4751 55.252
33.1765 -54.2827
33.947 56.4734
31.9796 -52.9448
37.1802 -53.994
36.6408 -51.7105
36.7788 -49.7148
38.818 -51.897
42.6318 -50.2651
44.364 -52.3563
41.9004 56.1742
43.4927 -50.7646
40.2104 -50.3596
46.7656 53.123
42.3482 -55.9603
40.2285 -54.0465
50.6806 -56.8317
45.2412 -52.9711
46.4253 -53.4062
47.1813 -47.0196
52.4262 -53.1833
49.075 -49.384
52.73 -52.2066
53.4602 -48.5312
49.3795 -54.7556
51.8824 48.8633
53.1571 55.8452
55.2566 55.8161
56.2786 48.4212
55.4146 51.9877
52.8055 -56.706
-56.0651 54.903
-55.2711 55.5405
-52.2732 -51.4876
-56.448 -54.1861
-54.3437 -54.373
-49.2429 -49.8988
-47.5991 -52.4884
-46.1292 -51.2923
-38.5493 -51.8093
-42.474 -55.317
-43.1788 -54.4183
-33.9332 -43.4322
-46.8961 -53.2395
-39.6916 -49.3206
-32.5643 -47.8422
-38.9906 -50.5756
-36.7015 56.3817
-28.6863 -46.8369
-24.6478 -46.9737
-21.676 -49.8003
-19.8076 -50.8031
-21.9255 -47.8827
-14.1695 -51.4048
-22.7306 -50.1287
-23.3806 -51.301
-28.5906 -51.0148
-24.5114 -55.2138
-25.2365 -52.2796
-16.5074 56.901
-26.7979 -54.8189
-7.60229 -55.836
-11.614 -47.8134
-7.94766 -57.1425
-9.65618 -51.6516
-7.94071 -53.186
-4.27445 -51.8927
-9.90751 -54.2923
-8.70765 -52.4475
-4.58589 -53.5093
-5.10377 -51.0772
-1.69745 -44.3956
-5.3896 -48.1481
-7.58967 -48.2904
-0.57586 -44.0705
-4.24547 -48.8448
2.66419 -49.6654
2.22552 -48.7352
6.73919 -44.7286
2.5273 -47.5613
-0.167389 -43.1329
4.04014 -51.1968
3.67414 -46.4915
1.29079 -47.5276
5.6086 -48.4578
10.5077 -47.8159
13.0068 -56.0272
14.7847 55.5936
8.31219 -53.8537
14.3546 56.5057
16.0446 -56.7779
13.0297 -57.1973
16.0784 -52.536
23.4784 -55.4624
30.0771 55.3833
25.7977 -54.7063
32.5533 -56.8138
27.8378 -52.5462
24.8911 -53.9773
19.7793 -51.4469
28.67 -56.162
36.3539 -53.4497
39.2421 56.7051
36.0178 -56.6215
39.2405 -53.443
31.986 -54.3879
38.3256 -52.8506
32.31 -47.4809
39.065 -48.6911
40.8098 -53.2397
44.4495 -56.894
43.3879 -56.8239
45.1378 -48.5715
45.4635 53.0327
45.9928 56.0996
45.9137 54.9833
41.7668 -51.1716
49.9525 -56.0007
49.7974 -44.0706
51.7892 -47.5697
49.1043 -50.4456
50.6002 -50.8551
49.9539 -46.1336
49.7163 -52.7609
51.7167 57.2021
51.2801 -53.614
50.5176 -54.7438
53.681 54.7736
55.4332 53.0712
54.353 51.8984
-50.3932 -50.4748
-56.7961 52.4065
-55.6835 56.9044
-51.5481 56.2866
-54.834 -56.8351
-46.9822 -48.2382
-51.4356 -52.4107
-47.2685 -55.2886
-40.1223 -50.9342
-41.5562 -50.5558
-43.9164 -47.8767
-34.0277 -46.4694
-42.8074 -47.6309
-43.7796 -51.028
-36.2842 -46.1055
-32.5209 -46.5162
-39.3194 -54.7506
-42.2973 -52.5646
-26.4554 -48.7484
-39.5817 -52.4717
-21.9655 -51.1012
-23.7632 -49.0209
-21.9191 -53.2872
-20.9814 -48.6066
-22.3166 -52.1993
-26.4095 -52.7322
-25.5682 -51.1667
-16.93 -56.5817
-26.6891 56.8677
-27.1445 -53.7653
-23.5255 -54.8245
-12.8572 -55.8203
-14.1791 -52.655
-10.8404 -55.4649
-14.6408 -49.3884
-7.72409 -52.091
-13.0375 -49.8169
-2.35659 -51.509
-8.61835 -51.429
-3.10376 -47.3245
-7.62608 -49.4186
-6.65242 -44.2585
-0.91268 -45.022
-4.19758 -46.4501
-4.32113 -47.7744
2.7261 -41.916
1.49624 -54.6244
2.05426 -51.5817
0.726537 -50.2216
4.37253 -40.4587
7.27696 -46.945
-3.40915 -44.974
12.8808 -52.6947
5.84415 -45.7912
9.07394 -56.0541
5.4292 -56.6453
7.077 -56.1537
3.68111 -47.6112
17.1491 -56.686
18.463 -55.1632
15.1198 -49.6475
16.5926 -50.7149
22.1644 -53.9325
15.9996 -55.3823
22.8232 56.3402
27.7489 -55.1543
35.5096 55.7161
24.7701 -57.1195
27.3264 -51.6906
29.297 -52.4466
29.537 -55.4494
30.3514 -56.0444
33.6129 -52.3939
35.4393 -51.0699
27.908 57.1688
26.8574 -52.837
32.0724 -55.4224
38.6667 -50.2759
44.3315 -51.3539
41.5241 -50.1522
42.9203 -51.6133
42.2177 -49.2156
42.9371 -53.9703
43.5258 -55.721
45.7338 -50.6717
43.2741 -52.8672
47.5623 -51.556
48.5607 -51.4094
48.2806 -48.6852
49.8211 -51.4774
53.3355 -50.9417
52.1024 -50.4119
46.85 -44.9652
54.0316 -52.1356
52.0536 -55.9561
52.4579 -54.1943
50.9231 -55.7849
56.2376 56.1405
54.7121 54.7026
56.3765 52.4123
-53.6 -55.393
-53.1638 -53.9795
-56.8683 -55.1784
56.9957 -53.6147
-46.8412 -49.739
-38.5816 -49.0391
-46.0733 -53.7881
-45.2737 -53.1777
-45.6954 -48.9064
-37.8512 -49.8035
-40.8481 -52.231
-45.9904 -47.5111
-41.5988 -49.5226
-31.5426 -48.2078
-32.3996 -48.9958
-37.1517 -48.3336
-34.2246 -49.9446
-37.8298 -52.5725
-27.6973 -46.4885
-22.1873 -46.5631
-18.3637 -49.9939
-20.7893 -50.5573
-19.2813 -51.7584
-15.0534 -51.8851
-25.9068 -50.0694
-21.1927 -52.4377
-20.6694 -55.817
-28.3512 -53.5425
-25.2064 56.2179
-20.9972 -53.7178
-16.7797 -55.3248
-13.4515 -48.5726
-9.97496 -53.2914
-13.101 -52.0328
-7.84306 -54.4509
-11.7335 -52.3049
-12.7129 -53.053
-7.27404 -51.0915
-5.4892 -44.436
-9.01359 57.1604
-2.69959 -40.5814
-6.61707 -49.8807
-6.48333 -48.2568
2.03934 -45.5329
-3.38401 -49.507
-0.109119 -48.2184
-3.83718 -41.0994
-1.49712 -40.395
0.721216 -40.6304
0.585811 -42.4606
7.22418 -48.0393
3.0568 -43.1735
9.52933 -48.9393
7.62136 -51.1737
9.35862 -47.295
6.01158 -52.613
10.0497 53.7841
14.4762 -54.7871
9.6141 -52.6975
20.1854 -50.4748
13.9244 -56.726
19.4807 -49.6894
17.2743 -49.9003
18.0701 -53.7043
27.8534 55.9784
20.3278 -48.7127
17.6167 -50.8269
23.8995 -53.2455
26.7892 -54.4868
25.2601 -56.0906
25.2354 -53.0484
28.9356 -54.4716
31.0696 -53.8219
25.662 -49.2729
33.2227 -51.2047
37.2584 -52.817
30.8748 -47.6076
43.4929 -48.7102
38.626 -47.2606
45.4 -49.6493
37.3505 -48.6901
38.2687 -49.2818
43.2804 -47.2941
38.981 -46.1215
44.5174 -53.7114
46.2571 -47.8235
49.928 -48.6392
46.2461 -48.8467
44.5087 -46.3541
48.2497 -47.2418
47.5429 -49.5801
54.7331 -48.7112
54.5394 -51.1899
48.1576 -46.003
54.2273 -55.0463
55.0459 -52.0508
52.4886 50.5802
54.2212 55.6141
55.5797 -54.4339
54.3583 53.596
-53.5654 51.9625
-54.6446 -52.3298
-54.2821 -53.3698
55.8716 -56.3848
-50.9686 -51.4521
-43.4924 -45.6807
-48.695 -52.3538
-39.2601 -44.6145
-40.6343 -49.8224
-41.984 -45.666
-36.116 -44.5182
-33.9628 -42.0464
-36.0797 -48.1707
-34.8839 -44.1848
-26.4748 -47.6484
-29.2319 -47.7846
-30.7281 -48.8542
-26.7098 -46.6834
-27.0752 -45.5395
-22.1409 -45.4707
-19.8155 -46.6726
-24.3668 -51.6076
-22.6345 -44.5319
-19.4347 -49.7598
-13.0966 -50.9772
-20.4746 -51.6691
-19.9848 -52.7035
-24.4193 -52.9154
-24.5003 -43.1765
-22.9512 -53.5573
-17.7084 -54.8795
-20.6026 -57.0805
-21.0242 -54.7414
-10.3846 -52.3571
-15.3357 -48.5551
-12.1372 -50.5107
-11.151 -53.3415
-6.1464 -50.9004
-4.52773 -49.8068
-5.53521 -52.1261
-1.11499 -47.1218
-7.36183 -46.4905
-2.33357 -46.6951
-1.1923 -52.1528
2.67233 -54.3878
1.04472 -45.6828
-0.0368503 -41.5427
-3.3755 -43.9332
8.27542 -45.539
3.08445 -45.4112
10.6112 -46.7513
8.90405 -50.7787
7.02893 -52.1045
6.0316 -47.4585
8.59151 -57.0651
11.8846 -53.9658
6.61051 -49.1245
11.8342 -56.0761
7.8248 -52.9409
15.0278 -56.9416
18.1608 -56.4494
20.7944 -51.4029
22.0943 -51.8468
20.9688 -52.4704
20.9444 -47.6312
22.6412 -48.2631
27.3288 -56.4061
21.6301 -50.519
35.6416 -52.3121
23.6666 -51.1845
22.1909 -49.4474
29.2548 -51.3005
29.9725 -53.4419
34.354 -50.3427
31.6495 -56.3269
37.4554 -50.4255
36.3449 -48.3628
34.7734 -49.3368
33.6152 -49.0763
37.9179 -46.5305
39.7072 -52.439
39.8052 -45.531
42.5028 -48.2567
41.2555 -48.6269
42.2425 -43.616
44.6065 -50.349
46.2505 -51.5719
42.0827 -52.223
50.0756 -50.0109
45.7411 -46.448
43.5312 -45.9419
55.7937 -41.681
55.1195 -40.8805
40.6212 -43.6988
44.2954 -47.5586
48.1916 -54.74
55.2566 -47.8572
53.7441 -56.3772
56.5478 -54.7307
56.949 54.681
-56.9318 55.5989
-55.7255 -56.2133
-47.957 -45.1275
-49.5839 -51.1735
-44.4857 -49.6883
-45.8251 -45.8176
-37.9044 -47.6479
-45.541 -52.1604
-41.4468 -48.4038
-39.7673 -45.6293
-35.1526 -42.0153
-40.7598 -45.4485
-40.8068 -47.0853
-31.6037 -44.6204
-30.7159 -46.42
-23.8019 -44.5329
-31.562 -49.7003
-24.5805 -48.3965
-28.7769 -44.5204
-27.7859 -40.7292
-25.6964 -46.4778
-28.2096 -43.5647
-28.9506 -41.2036
-17.7165 -48.5709
-23.8296 -47.6836
-16.2623 -51.5715
-18.9433 -52.7335
-16.4856 -53.6762
-19.9006 -53.7884
-17.6842 -52.5491
-14.7567 -53.4962
-9.9826 -49.8802
-11.3214 -51.2809
-10.8148 -49.2309
-14.7088 -47.6596
-15.7306 -47.6335
-8.80489 -49.2421
-12.5793 -47.2537
-6.131 -46.4081
-7.82858 -44.5824
-3.26485 -46.0131
-2.40669 -43.6797
-2.44764 -42.684
-5.96089 -43.4356
-3.66853 -40.0591
3.46881 -39.7112
-1.83098 -41.4437
7.63423 -42.853
0.867945 -43.6444
-1.22946 -42.5085
5.67922 -43.738
4.67802 -44.0134
8.50776 -48.1005
15.5488 -41.9824
7.6645 -54.8426
12.2071 -55.0602
9.75944 -50.2641
13.3207 -54.9742
8.07365 -55.8201
14.4718 -51.8441
15.1881 -55.9488
14.6938 -48.4882
19.3103 -48.5718
22.4412 -54.8856
18.9473 -47.1191
24.7766 -51.2191
21.9215 -47.4253
21.4769 -48.5072
21.0833 -49.5119
22.8662 -47.0719
28.6285 -53.3152
27.6856 -53.6715
25.9754 -52.2031
24.6364 -47.2769
29.6464 -46.6145
32.6044 -52.0802
39.5899 -47.5095
39.4225 -49.6325
35.931 -42.3532
34.6668 -46.8336
36.9018 -47.4603
37.48 -44.6675
43.8567 -44.7029
45.2909 -47.4734
40.6898 -47.3726
45.2751 -51.8446
44.3626 -49.2307
44.8164 -42.2211
47.2296 -48.2278
52.8387 -47.7409
47.942 -45.041
55.0023 -39.4072
52.1737 -48.5814
55.0156 -49.8365
52.9678 -55.5439
56.9886 -56.0167
-56.829 56.597
-56.732 53.6109
55.8413 -53.155
-55.8734 52.9081
-54.6853 -51.3071
-51.8289 -50.3746
-42.3669 -43.837
-43.533 -50.069
-48.0405 -48.3973
-53.6135 -51.9654
-47.4267 -50.5645
-43.1473 -51.9971
-37.0188 -42.5133
-32.7805 -41.5786
-33.5331 -44.503
-35.1055 -46.382
-32.668 -40.1311
-33.3873 -49.094
-25.8953 -40.7532
-30.5257 -47.6343
-26.2577 -42.7958
-24.3806 -45.9108
-27.7234 -39.5687
-25.4743 -47.8772
-25.964 -39.487
-25.0915 -44.8218
-17.0052 -45.5209
-20.5024 -49.5655
-20.4705 -47.7499
-21.3727 -44.7599
-20.074 -45.4151
-17.4948 -53.6891
-17.0269 -46.6699
-18.3728 -46.6842
-15.6932 -55.26
-20.8393 -46.7848
-19.9487 -54.9233
-17.5043 -47.5401
-12.4621 -44.8315
-13.8447 -53.907
-6.56593 -51.9807
-3.13443 -48.48
-8.73462 -45.8752
-11.3989 -44.4798
-1.52106 -45.9905
-4.21043 -43.0727
4.25436 -42.7136
1.12168 -48.5237
-0.371721 -40.5383
9.19233 -44.5841
-2.00523 -49.0593
5.05303 -41.4776
8.494 -46.5617
13.6325 -42.5095
13.4577 -44.6524
10.7966 -45.4923
11.6112 -49.4626
14.9746 -46.3313
13.1924 -46.1258
8.60053 -51.7295
14.4959 -53.7766
17.3012 -53.0029
15.9209 55.3799
10.4902 -54.3074
17.0096 -51.9066
22.2427 -52.93
21.2686 -40.4324
22.8205 -41.6486
22.6008 -44.6004
23.962 -46.5544
22.7599 -40.5144
24.8068 -42.2468
23.2069 -50.132
25.8127 -42.648
23.7203 -45.4722
23.0304 -52.2126
34.2181 -53.3492
26.2604 -39.213
33.071 -53.256
32.3059 -50.7506
27.218 -46.976
30.0288 -48.3242
29.6667 -49.3436
37.3098 -45.6759
35.6402 -49.9385
39.161 -43.3214
36.2935 -45.5714
40.9744 -42.5052
38.3958 -45.2457
40.4287 -49.3838
46.8917 -50.5377
42.2071 -46.3811
42.0424 -45.3194
50.1847 -45.1205
45.3826 -43.2793
52.7248 -49.4698
53.5363 -54.1728
54.2823 56.7202
55.1975 -55.5836
56.6103 57.1001
56.1606 -49.8012
-53.4992 56.7823
56.2296 -51.6241
-46.7999 -46.5455
-56.5137 -56.8622
-41.9078 -46.7803
-42.5866 -49.6255
-45.0691 -48.0523
-45.8519 -44.7558
-38.8011 -46.2592
-41.2963 -41.4133
-32.8745 -42.6086
-42.7052 -42.8614
-36.1076 -42.9166
-36.668 -40.6264
-36.8635 -47.2597
-31.4868 -47.1904
-31.6364 -43.4314
-29.609 -45.1348
-27.2192 -43.7712
-25.7033 -43.8413
-26.8959 -39.0121
-27.2544 -41.6605
-22.1864 -48.8671
-27.7511 -44.7635
-23.2834 -45.6883
-21.5305 -42.5751
-26.0706 -45.5041
-15.4049 -50.7578
-17.2057 -49.4584
-15.7944 -43.7901
-23.5347 -46.6819
-16.0468 -49.7136
-14.6221 -45.5615
-14.7702 -46.6494
-12.4744 -48.365
-10.401 -44.717
-11.0968 -45.5162
-9.34599 -50.6561
-13.9129 -50.3873
-8.0231 -47.2524
-9.49399 -47.1308
-4.72659 -41.7449
-0.509772 -46.2631
-5.97262 -45.4151
-4.41068 -44.0539
7.80382 -39.6298
-0.0127604 -38.7803
9.6959 -39.0536
1.99798 -36.9869
-2.92584 -41.6794
1.78733 -43.0234
3.49775 -44.1143
12.7733 -39.4921
9.70399 -45.803
11.7075 -52.7066
12.3633 -42.707
12.4803 -45.3688
11.071 -55.4074
13.2287 56.0608
10.6116 -52.8923
15.483 -54.4676
18.2603 -48.0628
13.8842 -52.8761
15.0904 -52.747
16.1367 -49.7789
20.8041 -45.777
23.1246 -43.2081
24.4148 -43.1704
17.581 -47.0018
24.0602 -52.0993
23.6149 -42.3333
21.9749 -39.6955
23.7562 -39.978
22.2621 -45.6454
23.4116 -49.1094
27.7497 -50.173
26.7244 -49.8539
29.9666 -54.5096
27.689 -43.4929
30.5036 -51.8192
28.784 -50.1497
30.7947 -49.512
35.2093 -45.1217
41.1404 -46.4802
37.821 -42.792
35.6842 -46.4397
40.0655 -46.5638
36.4202 -44.5023
48.6895 -42.9911
45.8541 -44.2358
46.7821 -43.5686
55.0646 -44.7857
44.7424 -45.246
51.0591 -46.4742
53.9876 -43.0263
51.5011 -45.3124
48.991 -45.4551
53.8305 -50.0352
56.8684 -50.7584
-56.5777 -51.7754
54.8657 -56.8041
56.4419 -46.4344
-55.807 -55.1925
-48.1297 -46.4062
-52.0195 -41.2718
-43.236 -48.7421
-40.2527 -48.0034
-42.9516 -46.5832
-42.8807 -44.9007
-43.0654 -39.0871
-37.683 -46.5207
-37.108 -45.3289
-34.9308 -43.0059
-32.5722 -43.9719
-29.3953 -42.9363
-31.4121 -45.7034
-30.1405 -39.4278
-30.6746 -42.8194
-27.376 -42.6473
-20.7907 -41.5075
-22.6613 -42.6036
-25.9861 -41.7505
-18.8976 -42.3347
-25.2824 -42.5193
-19.0713 -43.584
-16.2222 -42.4269
-15.9084 -46.6127
-17.1929 -33.1108
-19.1163 -45.895
-13.3669 -39.4803
-13.8717 -44.8826
-18.7195 -48.1349
-16.4744 -48.2941
-15.2785 -41.7105
-13.1417 -41.9279
-12.8684 -40.5995
-11.8384 -40.4764
-7.36796 -43.5567
-12.0824 -49.3421
-11.4641 -42.9915
-11.3973 -46.4673
-5.86669 -41.6703
-4.86548 -45.5289
-4.11207 -39.085
-1.40591 -38.3927
-4.64114 -36.1215
-5.24858 -42.69
4.62687 -37.35
-1.02006 -39.4013
5.38701 -39.9562
13.7186 -40.7703
9.81023 -40.5725
13.362 -51.7268
10.0928 -51.5476
12.9898 -43.5011
14.7116 -42.6104
11.9271 -51.5261
13.7587 -50.7861
11.5473 -46.1753
12.6171 -50.5031
15.1497 -50.7077
15.2747 -47.4884
18.0494 -49.0555
12.3101 -46.814
16.9515 -48.5775
19.8661 -47.6431
16.5582 -47.5228
15.9111 -46.6966
18.9879 -44.5218
25.4206 -43.7696
27.6521 -37.1529
27.5309 -41.4701
25.3594 -45.1668
26.0661 -45.9682
21.6022 -46.4709
23.5907 -47.8656
31.535 -46.8035
25.7608 -50.5048
27.3127 -45.8792
30.1764 -50.3431
34.3497 -43.6614
33.0459 -46.8079
32.6253 -48.6194
36.0085 -43.4648
38.3413 -44.0605
48.1243 -42.1306
35.7085 -47.5968
43.152 -42.7977
41.9086 -47.4484
47.6836 -43.1432
51.8446 -43.301
50.1232 -41.7275
45.7547 -45.2838
54.6381 -41.8797
54.9838 -45.8228
49.1661 -46.7936
53.0737 -46.7403
56.7656 -44.5356
54.1032 -46.3497
55.4089 -46.8056
55.4534 56.7881
-42.4117 -51.2853
-48.6628 -50.7303
-49.7982 -47.906
-45.9758 -50.2759
-52.3914 -47.7849
-48.6739 -47.4925
-46.8044 -45.1469
-44.1908 -46.4401
-40.843 -43.3546
-41.4848 -37.4945
-39.8823 -41.2722
-45.2831 -46.7076
-39.5503 -43.4361
-34.1501 -45.3987
-28.9001 -39.0331
-32.1165 -38.226
-30.907 -41.7822
-23.8202 -42.2972
-26.8342 -40.3734
-18.1215 -41.6932
-21.751 -38.0326
-21.4151 -40.6753
-16.9307 -44.5069
-20.0997 -40.5681
-20.5492 -43.023
-20.1452 -43.9699
-19.9134 -39.447
-17.0113 -43.1483
-17.9855 -45.3059
-18.0302 -43.914
-17.0787 -50.7576
-14.4328 -41.1553
-13.1203 -44.02
-19.9248 -48.7491
-13.4975 -45.9186
-9.94746 -48.3199
-8.93557 -40.8071
-3.37761 -37.0978
-6.79491 -41.3257
-7.60177 -42.4872
-6.46415 -42.5096
-2.92095 -38.6831
-7.76703 -38.3532
-5.74107 -38.4471
-0.244685 -36.2505
-2.14225 -33.2136
2.47636 -39.5699
5.92078 -40.9411
1.51757 -39.9033
2.44509 -44.4983
4.50438 -39.466
8.24694 -41.9218
15.1662 -43.7695
16.0947 -39.2173
16.116 -43.2282
17.1325 -40.7671
16.0596 -37.6107
18.4494 -40.4551
19.9262 -37.1303
13.0064 -53.9763
13.9431 -49.3797
13.8113 -48.0032
16.723 -46.0768
15.7844 -48.5772
15.87 -45.3621
18.1 -45.9391
18.4471 -50.0119
23.5865 -44.1783
22.8684 -38.8885
29.6179 -38.5736
27.9589 -40.5364
29.1086 -40.5675
26.3344 -37.2798
29.6892 -41.4244
32.9076 -38.6921
31.0728 -42.599
31.5886 -51.5468
28.5777 -49.0797
28.6438 -47.0077
33.1748 -44.8894
31.992 -49.4539
33.3963 -47.9681
28.9087 -48.0945
44.3482 -43.1707
35.2618 -44.1329
42.266 -38.8508
38.9146 -40.8664
46.731 -46.0607
50.9417 -40.1987
53.3364 -41.9479
52.1356 -42.2335
54.6059 -43.8626
-56.8586 -42.4031
52.5279 -44.9118
53.2797 -45.615
-54.7977 -48.031
-55.4257 -50.0503
56.8358 -48.2467
-55.7406 -53.2775
-55.2483 53.8246
57.0053 -52.5643
-49.9232 -49.1043
-55.3277 -54.2914
-53.252 -52.9639
-55.8838 -49.15
-43.6303 -43.4549
-52.1239 -48.7627
-44.8736 -44.4593
-41.9203 -40.6349
-40.2958 -44.4194
-40.2603 -42.3217
-35.5284 -45.317
-28.6503 -40.1282
-30.6358 -44.0812
-26.5764 -44.5312
-29.6097 -43.9309
-32.568 -45.1338
-31.8125 -42.1962
-30.0948 -38.2076
-21.8777 -41.6066
-23.4961 -43.2639
-25.028 -41.4953
-16.2325 -39.024
-22.3088 -39.3663
-19.0147 -41.1377
-16.6929 -40.3466
-15.6666 -34.7298
-18.1185 -40.6435
-15.5367 -40.6306
-21.9797 -31.1076
-16.8883 -30.728
-13.5148 -42.928
-15.0818 -42.8368
-14.6343 -43.7357
-12.4832 -42.7141
-12.6508 -38.4787
-7.06292 -45.2927
-9.61224 -45.3777
-4.65857 -40.2376
-9.24386 -44.1062
-6.71769 -38.2702
-6.21001 -39.7418
-1.0207 -37.069
-2.23418 -37.3821
-4.9956 -33.2789
0.418383 -39.6746
-2.60491 -35.5306
0.963033 -37.7464
5.5638 -42.7457
6.73386 -39.7507
4.32639 -38.4787
8.04833 -44.1961
11.4338 -47.4076
12.602 -49.1715
8.60078 -43.2962
16.6099 -41.6364
14.2034 -45.6995
12.858 -36.9086
18.2204 -41.4334
13.26 -47.1626
11.6003 -48.4392
15.9851 -51.5123
19.4084 -43.2613
20.1606 -46.5869
18.2723 -43.7784
17.9938 -44.9102
24.5631 -44.4649
22.4485 -37.2432
26.453 -41.5237
28.2447 -38.2227
30.0201 -42.3926
31.7831 -39.1248
28.5794 -39.164
26.8671 -42.7078
28.1974 -44.6237
24.7418 -49.8502
25.3726 -41.3116
28.2204 -51.2259
27.4132 -48.8895
42.9588 -41.1031
41.9248 -42.1237
33.0411 -49.9196
34.1677 -45.7634
40.1145 -48.4193
44.8453 -44.1917
40.8252 -41.4883
42.8376 -44.6648
49.1241 -41.716
50.6225 -39.0694
50.02 -40.6182
53.8919 -44.7661
51.0128 -42.2191
52.5324 -38.6897
52.9958 -42.9403
-55.7413 -42.8068
-56.566 -44.7781
55.0139 -42.8462
55.739 -48.7817
56.1794 -47.4711
-53.4037 -50.8892
-55.7064 -51.26
-54.5773 -55.8058
-53.6561 -43.6057
-53.3362 -47.4405
-47.6668 -47.4167
-45.3357 -39.8386
-48.7731 -44.2267
-38.3469 -44.0986
-38.4832 -41.545
-41.5472 -44.5837
-37.4539 -41.5942
-29.9448 -42.0205
-28.4655 -42.0928
-31.0472 -37.6782
-32.974 -39.015
-35.0741 -39.8527
-30.2082 -40.4806
-29.0098 -37.7176
-33.6297 -40.9796
-30.0437 -36.7264
-22.8681 -38.2936
-24.8923 -40.4854
-22.917 -41.5598
-22.1397 -43.6175
-18.8202 -44.7033
-18.0234 -35.0802
-19.1757 -33.298
-15.3693 -32.5427
-17.1987 -42.1442
-16.5583 -41.3616
-17.1751 -39.4508
-10.3712 -38.894
-13.9404 -40.2958
-10.5369 -42.6151
-10.3914 -36.6271
-10.9118 -41.6093
-8.50777 -43.2368
-8.22419 -39.6537
-2.1398 -39.575
-10.253 -43.5802
-5.20089 -47.0227
-8.24684 -41.6247
-5.21221 -39.4133
-5.24879 -34.7865
-1.82116 -36.3459
-0.805305 -35.268
7.5064 -40.6031
8.85144 -39.6673
12.0565 -41.5032
9.33871 -41.6043
10.1852 -44.3994
15.8781 -40.7641
13.8332 -39.4181
13.1544 -41.6217
17.7145 -39.7415
12.7711 -48.0248
13.5177 -37.9726
10.7923 -37.081
19.8761 -39.2577
16.1765 -44.2377
17.2604 -44.0351
14.2612 -47.034
21.8789 -43.4872
14.874 -44.7601
19.4959 -40.8809
16.9155 -45.069
19.7886 -45.5892
21.8277 -38.2134
20.8912 -38.8114
27.5419 -39.2863
33.4965 -35.5789
30.4409 -36.0127
29.5379 -39.5781
29.2913 -37.4438
33.1555 -41.1148
26.539 -43.8364
25.4336 -48.2449
26.6457 -50.9742
39.8953 -41.0467
39.1111 -42.0689
43.2729 -36.873
41.3583 -37.9609
33.0072 -43.8984
41.4439 -44.3905
38.319 -39.8832
42.9557 -37.8306
46.0779 -41.5662
51.826 -40.6632
53.2403 -39.4644
49.0698 -38.0222
53.2626 -36.7272
50.7756 -43.4298
53.0228 -44.0317
55.7853 -43.9892
56.1069 -40.624
56.1905 -42.5924
-55.7127 -44.2307
-56.3945 -50.472
-53.8032 -48.4151
52.129 -46.0802
-50.9149 -41.9303
-52.92 -49.7138
-54.0825 -49.9672
-51.0479 -49.5984
-54.7127 56.4748
-51.4196 -47.5404
-51.0436 -48.5335
-48.0624 -49.5365
-40.7715 -40.2057
-42.9704 -40.5107
-34.0226 -39.9343
-39.523 -38.968
-37.068 -36.0381
-35.6801 -40.9185
-36.3083 -35.2664
-34.4299 -36.4989
-34.1036 -34.812
-34.005 -37.4577
-31.78 -39.6845
-34.6485 -40.7468
-31.1761 -38.7455
-17.2022 -38.3625
-21.1679 -37.1789
-16.0212 -45.1465
-17.408 -36.1791
-18.8817 -34.3351
-15.9773 -33.7007
-18.3205 -32.7573
-18.6504 -31.3481
-12.2954 -35.3826
-17.5599 -37.2444
-14.403 -37.3859
-13.9425 -38.5415
-14.2331 -42.2135
-9.45029 -42.9291
-10.6147 -47.2371
-11.837 -39.4279
-12.1732 -43.6893
-9.15529 -38.146
-9.78931 -41.6443
-12.1811 -45.7871
-5.60724 -36.3491
-6.3712 -35.2835
-1.94581 -34.4783
-4.11229 -35.2029
-1.0796 -33.0578
3.02036 -38.513
1.10853 -38.7614
5.55729 -38.9511
5.74738 -37.916
9.59821 -43.5653
11.7542 -43.6267
14.2204 -41.6711
13.8215 -35.1747
18.6943 -37.7451
17.8222 -38.2608
14.948 -39.7364
16.1185 -36.4574
15.5598 -34.4876
20.2924 -40.2409
17.0326 -42.6804
22.3643 -42.536
25.0628 -33.6809
21.224 -37.2017
20.5654 -36.3118
20.2231 -44.2251
19.0612 -42.0291
21.4196 -44.6081
24.665 -40.5056
23.9633 -41.2987
32.2904 -43.0419
31.9532 -41.9544
30.9803 -41.5919
31.1917 -43.9015
35.153 -41.012
26.4613 -44.9122
29.4838 -45.3462
25.6078 -47.0006
30.3929 -45.7477
34.198 -44.726
36.3893 -41.0888
37.5553 -40.7325
41.7826 -40.9575
39.2563 -44.4831
42.5068 -40.1877
43.4938 -43.783
49.815 -43.0223
49.1369 -40.1634
53.0543 -40.441
54.1499 -40.0592
53.939 -41.0708
51.4026 -44.3151
53.8915 -37.7637
-56.7362 -46.6127
54.254 -47.5791
55.9931 -45.356
-55.668 -46.6975
-52.3408 -44.5507
-49.3312 -42.9867
57.0989 -49.4633
-54.8144 -49.1281
55.6764 -50.7679
-54.3084 -47.15
-51.1084 -46.2389
-54.5084 -44.6634
-45.7802 -43.6412
-43.8263 -44.4625
-42.8861 -41.7658
-42.1318 -36.7329
-42.1002 -38.5536
-39.7754 -46.694
-35.9057 -39.1157
-33.5688 -35.8082
-38.2567 -36.0474
-36.5745 -34.1548
-34.2753 -32.6274
-35.5674 -36.3508
-34.8983 -35.5234
-35.164 -37.2755
-35.0422 -38.4253
-31.5342 -40.7884
-22.5188 -40.5243
-19.5312 -36.4606
-18.2528 -39.4206
-18.2236 -38.0449
-19.5135 -35.4288
-18.5673 -37.1097
-24.1344 -35.6175
-21.14 -33.4406
-19.094 -40.0122
-13.5878 -47.03
-12.1744 -37.565
-15.1529 -44.5875
-11.1804 -37.3198
-10.7743 -34.0985
-7.19358 -39.4032
-7.51206 -40.3783
-10.2609 -46.2251
-11.8888 -34.4291
-9.77464 -34.3218
-8.37783 -37.1025
-9.33724 -36.5553
-3.35612 -30.6144
-0.401367 -33.8821
-2.07134 -26.3902
0.079876 -31.6827
1.82856 -41.178
0.102048 -34.8447
12.2663 -40.3523
8.62287 -40.8603
12.4484 -38.4331
9.88013 -36.214
11.3179 -34.4675
11.1995 -35.9545
16.7326 -33.507
18.6606 -39.4314
16.7639 -38.4328
16.6347 -34.5168
16.9634 -37.1441
18.0349 -36.9442
18.207 -42.7089
21.3932 -42.0974
18.4146 -35.82
26.9212 -38.2139
22.344 -35.3509
20.5651 -43.2807
24.9754 -39.0084
24.8265 -37.9073
25.835 -38.1584
26.9418 -40.2546
25.8908 -40.2106
33.0302 -33.1196
30.1412 -40.418
34.6082 -48.0932
28.972 -42.9392
28.0184 -42.4511
27.8935 -47.8928
31.7663 -45.6093
30.3606 -44.6964
32.9589 -42.1156
44.3054 -36.7063
38.2176 -41.5747
40.8219 -45.2471
39.0151 -39.1455
44.0095 -40.7683
42.4279 -36.2757
46.2883 -42.699
49.5274 -39.2194
51.6497 -39.4527
50.0446 -35.8692
48.5914 -37.1589
47.0716 -42.0292
55.2964 -34.6293
52.2311 -36.5784
57.1405 -40.5132
-53.5816 -42.6002
-54.3601 -46.1054
-49.0911 -45.472
-56.7511 -47.6195
-55.8278 -48.0521
-55.3052 -41.3811
-44.6159 -45.4944
-55.4191 -45.2576
-51.9084 -42.6029
-50.1433 -46.5433
-42.858 -37.6259
-50.0966 -45.4766
-43.9654 -41.352
-43.7273 -35.3579
-38.104 -45.4265
-36.3186 -41.736
-38.0079 -38.9726
-38.3735 -37.9621
-36.8502 -38.582
-39.0138 -34.2388
-32.9576 -37.4106
-41.5359 -35.8915
-38.3212 -32.2088
-38.0489 -34.9109
-34.0265 -38.4995
-30.1062 -35.6993
-24.5607 -39.5112
-23.996 -41.3101
-26.0629 -35.359
-19.9528 -42.1262
-19.1046 -38.7827
-21.6301 -35.4221
-27.0057 -33.0394
-21.5893 -32.318
-15.1264 -38.3206
-14.4232 -33.2028
-13.4213 -37.6609
-16.1451 -37.9881
-16.5398 -36.7165
-15.6846 -35.7482
-7.42427 -37.3956
-13.1755 -36.3171
-8.54088 -35.2805
-9.98419 -40.5283