ITEM: TIMESTEP
3900
ITEM: NUMBER OF ATOMS
10000
ITEM: BOX BOUNDS pp pp pp
-5.7205700000000000e+01 5.7205700000000000e+01
-5.7205700000000000e+01 5.7205700000000000e+01
-1.1441100000000000e+01 1.1441100000000000e+01
ITEM: ATOMS x y
-54.3167 -57.1039
-54.0449 55.9985
-52.3131 57.2013
-51.1692 -57.1508
-50.0412 57.0209
-49.8753 -56.3494
-48.9119 -56.943
-47.8401 56.4502
-45.7551 57.0048
-45.3581 -56.4004
-44.2653 -56.0478
-42.9431 -55.9201
-41.4213 -56.906
-39.9807 -56.9617
-38.7627 56.9704
-37.6289 -55.6988
-36.6863 -56.0528
-35.559 56.539
-34.7785 -57.1899
-33.2552 -56.8931
-31.5596 56.9634
-31.8413 55.9985
-30.5847 56.4819
-29.4474 56.568
-28.4558 57.1518
-28.4883 56.1161
-26.1603 56.4751
-24.2843 56.048
-23.5744 -55.7464
-21.8046 -55.9696
-21.0828 -56.8926
-20.574 55.4755
-19.2203 56.3638
-17.1419 56.7028
-16.6944 -56.7969
-14.8474 -56.3716
-14.4872 57.0538
-13.5232 56.5115
-12.8344 -56.9831
-11.1373 -56.3987
-10.2079 -56.8909
-8.79505 -56.7809
-7.28086 -54.7951
-6.42011 -56.151
-5.18306 -56.5614
-3.98551 -56.8253
-2.12599 56.1835
0.397086 56.899
-1.03515 56.6421
1.10627 -56.1522
1.88557 -55.3685
2.20113 -56.3479
2.80283 57.1492
6.226 -56.5417
5.15788 56.3207
8.27216 56.6667
9.34857 56.6526
9.78695 -56.8423
10.7299 -55.7957
11.669 -55.3081
13.4914 -56.4626
13.9389 -55.5539
15.591 -57.1447
17.0135 -56.9827
17.776 56.7794
18.5155 56.1006
19.76 56.9191
22.004 -56.8462
22.6941 -56.1258
24.6386 -56.5436
23.9115 56.9298
24.543 55.6425
26.2588 56.6635
27.4732 -56.5355
28.4108 -57.2166
29.0161 55.8568
29.848 -57.1269
29.9942 56.2493
32.5838 57.0693
33.6753 -56.9962
34.2356 -56.1486
37.4672 56.7988
37.0741 -56.5578
39.633 -57.0036
41.1381 56.1464
41.9328 56.9052
42.5028 -56.557
43.4596 57.238
45.1022 -55.7863
45.7313 -56.8079
47.0641 -56.989
48.5589 -56.9468
49.1958 56.4592
50.6674 56.1773
51.6289 56.6592
52.707 55.7062
54.735 56.5248
54.6753 -56.7929
57.0841 -55.6195
56.5883 -56.645
-56.295 -55.9749
-55.1686 -55.8876
-53.0872 -56.5181
-51.8502 -56.0029
-50.8461 -56.1013
-50.4622 -55.0543
-48.6774 -55.93
-46.4373 -56.488
-46.2217 -55.354
-45.188 -55.3428
-42.4038 -55.0464
-41.8947 -56.0188
-40.7956 -56.0709
-39.8013 -55.8312
-38.7264 -56.0615
-36.974 -54.9377
-35.9519 -55.1127
-35.6472 -56.622
-34.1931 -56.099
-32.5326 -55.9879
-31.0906 -56.4671
-29.9479 -56.9063
-30.0362 -55.6641
-29.1217 -56.3372
-27.9458 -56.2598
-27.1208 56.7455
-25.0984 57.016
-24.7665 -55.5904
-24.036 -54.6675
-22.8222 -56.7027
-19.9499 -56.8912
-20.2467 56.5267
-18.234 56.7949
-17.7477 -56.7352
-17.4048 -55.757
-16.3747 -55.8352
-14.2013 -55.3522
-13.8432 -56.3907
-12.1524 -56.2344
-11.8656 -55.2192
-9.4777 -56.0294
-8.48028 -55.6562
-7.66705 -53.8284
-6.21205 -54.9985
-4.95872 -55.3999
-3.79175 -55.6885
-2.49759 -56.9653
-1.0904 -55.5312
-1.51707 -56.6767
0.679188 -54.9602
2.93962 -55.2722
3.22361 -56.3545
4.3456 -55.9448
6.01197 -55.5111
7.08314 -55.4022
6.05095 56.7659
8.57369 -56.6544
9.61712 -55.801
10.646 -54.7062
11.5698 -54.123
12.785 -54.7303
14.9393 -56.1584
16.3012 -56.2182
17.8959 -56.4194
18.7785 -56.8881
19.5752 -55.1527
20.8921 -56.6809
23.1651 -55.0813
23.8724 -55.8144
24.996 -55.6083
24.9195 56.7241
26.2811 -56.6315
27.7096 -54.5818
28.1006 -55.6673
29.1414 -55.5772
28.7861 -54.1403
30.0241 -56.1069
31.0928 -57.104
31.8861 -56.2673
32.9053 -56.3449
34.9991 -55.0456
36.1696 -57.0431
39.0323 -56.0429
40.1797 -56.0403
40.9379 -57.1496
42.3307 -55.4683
43.3475 -55.9907
44.389 -54.9783
45.6893 -54.8794
46.3307 -55.988
47.7316 -56.251
48.5247 -55.6021
49.6181 -56.831
50.725 -57.2049
51.4446 -56.509
52.3115 -57.0095
53.7395 56.0011
55.7931 -55.8107
56.1044 -54.7942
-56.8428 -53.9391
-56.1595 -54.8585
-54.1083 -53.9032
-53.277 -52.6744
-53.3976 -54.9499
-51.4861 -54.9606
-50.5555 -54.061
-49.4823 -55.2304
-47.3879 -56.9422
-47.6152 -55.7734
-46.9947 -54.7158
-43.5334 -54.9832
-41.466 -54.4282
-40.4546 -54.818
-40.6316 -53.7621
-38.3857 -54.997
-37.7212 -54.1763
-36.639 -53.9719
-34.705 -55.1281
-33.6832 -55.2029
-32.9553 -54.46
-31.6395 -54.3295
-31.1034 -55.4729
-28.4668 -55.2583
-28.6055 -54.1167
-27.2609 -54.9963
-26.9311 -56.6619
-25.9419 -56.3143
-25.1222 -54.6101
-23.228 -53.8859
-22.5518 -55.2546
-21.4584 -54.6193
-20.6265 -55.8031
-18.832 -56.6755
-18.0859 -54.1387
-16.012 -54.447
-15.3383 -55.2508
-13.8904 -54.2265
-13.0488 -55.6733
-12.761 -54.5058
-11.5478 -54.1701
-10.8584 -54.9554
-9.86388 -54.9188
-8.37321 -54.5963
-6.61667 -53.6406
-5.39725 -54.3969
-2.71463 -55.86
-2.15132 -54.5953
-0.904658 -54.39
-0.5381 -56.44
1.49592 -54.3409
2.63765 -54.0956
3.84677 -54.8382
4.99926 -55.168
6.22758 -54.396
7.45687 -56.5056
8.28421 -55.5665
9.21954 -54.8313
9.80875 -53.643
10.8772 -53.3103
11.8952 -53.1327
12.6282 -55.7321
15.2228 -55.0406
17.1642 -55.6656
19.8891 -54.0374
19.6717 -56.4349
20.9076 -54.9044
22.0809 -55.1064
22.381 -54.1332
23.374 -54.0021
24.1975 -54.6041
25.9895 -55.6597
26.5541 -54.6026
27.0931 -55.6076
26.5836 -53.6035
27.6425 -53.4891
30.4764 -53.9561
30.101 -54.8984
30.9417 -55.7231
31.6731 -54.5905
33.8217 -55.1224
35.9927 -54.6117
35.531 -56.0966
37.9525 -55.7947
39.6172 -55.1933
40.8601 -54.6381
41.2017 -55.6539
42.0283 -54.2509
43.018 -54.4477
44.1105 -53.7177
47.2157 -55.355
48.1939 -54.5715
48.5641 -53.6416
49.7302 -55.3205
50.5107 -56.0912
51.7053 -55.3115
52.5051 -56.0053
54.6792 -55.6535
54.7269 -54.6243
55.5384 -53.8583
56.508 -53.2721
-55.6168 -53.8356
-54.2166 -55.5295
-54.8176 -54.6664
-54.3238 -52.643
-52.6669 -54.2037
-51.7078 -53.929
-50.1754 -52.9346
-49.1346 -54.1661
-48.2282 -54.6085
-45.7579 -54.3787
-44.4318 -54.4379
-43.9213 -53.1312
-42.2656 -53.8021
-41.4566 -53.1283
-39.368 -54.7309
-39.6454 -53.1536
-38.6411 -53.6241
-35.3882 -54.2556
-34.7406 -53.2674
-34.2689 -54.2365
-33.5026 -53.5932
-30.674 -53.4879
-30.4474 -54.564
-29.407 -54.7909
-28.04 -53.2915
-27.1397 -54.0068
-26.2799 -55.3303
-24.189 -53.2962
-22.8234 -52.6298
-22.1985 -53.7018
-20.1696 -54.8205
-19.5413 -55.7083
-18.4256 -55.6753
-17.2188 -54.6418
-16.39 -53.1567
-14.9197 -53.9124
-13.1349 -53.3545
-12.2997 -52.6535
-11.8641 -51.7335
-11.2478 -53.0364
-10.4453 -53.9449
-9.24238 -53.7978
-9.05777 -52.3092
-8.20943 -52.877
-5.71228 -53.0833
-3.40644 -54.7531
-3.52023 -53.6327
-1.48263 -53.545
0.352311 -53.8572
-0.534044 -53.2375
0.881284 -53.0086
3.6031 -53.7844
4.46432 -52.7718
5.08947 -53.7341
6.26723 -53.2148
7.7913 -54.6521
7.34301 -53.7411
8.79629 -53.8891
9.27788 -52.7668
10.4909 -52.3035
13.4637 -53.9337
14.7849 -54.0498
16.6056 -54.7836
17.8463 -54.5048
18.5415 -55.5992
19.7745 -52.9271
20.9642 -53.8298
20.778 -52.7585
21.8486 -53.0716
24.3338 -53.5302
25.5509 -54.5025
25.3766 -52.9206
26.5224 -52.4572
28.2998 -52.3629
30.2787 -52.9708
31.5855 -53.6021
32.35 -52.6456
32.5306 -53.9284
32.839 -54.9071
33.6588 -53.7709
34.6628 -54.0325
36.4296 -55.6755
37.2616 -54.9229
38.4455 -54.9296
39.3075 -53.8882
40.8804 -53.6031
42.1299 -53.2119
43.1603 -53.0966
45.2477 -52.4951
45.1096 -53.4971
46.3391 -53.9362
47.3416 -51.8063
47.4284 -53.0748
49.4301 -54.2904
50.7117 -54.9585
52.6339 -54.628
53.3628 57.0331
53.5488 -56.3826
55.6468 -52.6335
-56.4625 -52.8824
-56.1971 -51.8503
-55.364 -52.6434
-52.73 -51.7648
-52.2046 -52.6162
-51.0948 -52.5232
-49.1083 -52.9578
-49.711 -51.8732
-47.8122 -53.5879
-46.8223 -53.7118
-45.8484 -52.7101
-43.3177 -53.9289
-45.2247 -53.517
-42.4424 -52.5846
-41.8958 -51.5092
-40.4506 -52.5665
-39.6004 -51.9398
-38.5613 -52.3949
-37.7706 -53.1415
-36.2834 -52.7672
-34.2775 -52.3716
-33.2507 -52.3919
-32.8016 -50.8115
-32.5069 -53.3883
-31.3818 -52.4897
-29.6706 -53.7987
-28.9981 -52.9133
-27.6386 -52.1942
-25.3056 -53.4205
-24.9071 -52.2336
-21.1004 -53.4772
-19.8244 -53.4665
-19.1964 -54.3377
-18.7835 -53.3361
-17.7421 -53.1743
-17.5427 -52.1867
-14.1892 -53.1878
-15.3122 -51.6382
-13.1183 -52.064
-12.5613 -50.8928
-10.8314 -51.999
-9.92334 -52.9938
-9.64076 -51.2687
-8.44397 -51.0385
-7.53462 -51.9876
-6.58385 -52.315
-4.42689 -54.0765
-4.53291 -53.0349
-2.39351 -53.1347
-1.32494 -52.0448
-0.0213839 -52.3478
1.35609 -51.6387
2.02707 -53.1065
3.09191 -52.6653
3.18064 -51.2835
5.39241 -52.3309
6.5143 -52.2197
7.9338 -52.8786
8.52569 -51.9733
9.73256 -51.6231
11.2174 -51.1594
12.7815 -52.5868
13.8895 -53.0348
15.8327 -53.5943
16.9269 -53.7926
18.8426 -54.4751
18.6599 -53.2881
18.9727 -52.2465
20.1204 -51.9146
21.2194 -51.6436
22.9758 -52.7733
24.241 -52.5126
25.4717 -51.8843
26.961 -51.535
28.0838 -51.1869
29.2903 -52.5281
31.3114 -52.3035
31.8949 -51.284
33.4251 -52.7379
34.5571 -52.8812
35.8978 -52.0279
36.9146 -51.602
35.7076 -53.4525
36.8494 -53.9883
38.0545 -53.4861
40.0622 -53.0391
41.5288 -52.1993
44.1993 -52.6827
42.2355 -51.2315
43.8094 -51.7236
46.2086 -52.7755
45.9559 -51.6812
48.2208 -52.3082
49.3274 -52.8137
50.6057 -53.9732
50.334 -52.439
51.6303 -54.1849
53.4469 -54.0315
53.7952 -55.1421
55.7512 -51.6157
57.0643 -52.3617
-56.6349 -50.9309
-55.1616 -51.5667
-53.8638 -51.6521
-53.2758 -50.803
-51.7135 -51.6531
-50.6508 -51.3795
-50.7198 -50.1784
-48.6856 -51.9455
-46.9979 -52.6961
-46.2526 -51.736
-44.8416 -52.4886
-43.754 -52.0525
-43.7542 -50.8254
-42.8946 -51.5082
-40.3602 -51.0536
-39.2869 -50.9666
-38.2017 -51.4494
-37.2406 -50.9716
-36.7179 -51.8672
-33.7491 -51.4255
-32.3662 -49.609
-32.1542 -51.6029
-30.9719 -51.5601
-30.3014 -52.485
-29.3729 -51.8254
-28.325 -51.4554
-26.1486 -54.2174
-25.9639 -52.6071
-23.7958 -52.2659
-22.0381 -51.9897
-20.7657 -52.3494
-18.6662 -52.1859
-17.6752 -51.1389
-16.5443 -50.6675
-16.3221 -51.8109
-15.1935 -52.8262
-15.3909 -50.6419
-14.2626 -51.7446
-13.0727 -49.7189
-11.7138 -49.4183
-11.5584 -50.4924
-10.5983 -50.9322
-8.08939 -50.0964
-7.43273 -50.9648
-6.38821 -51.1293
-5.6057 -51.814
-4.58031 -52.0161
-3.42087 -52.3969
-2.81716 -51.5323
-0.66149 -50.8209
1.31303 -50.3966
2.28923 -52.0256
3.67307 -50.3955
4.20451 -51.7191
4.78844 -50.6055
5.90616 -50.9616
7.29134 -51.4857
9.92738 -50.4727
12.2181 -51.1403
11.8275 -52.091
14.376 -51.9638
14.9851 -52.7517
16.2692 -52.6162
17.6076 -52.5754
18.1127 -51.7152
19.2957 -50.6402
20.2892 -50.9297
22.1802 -50.976
22.2811 -49.8823
22.2063 -52.0794
23.1207 -51.5901
24.4429 -51.3606
25.883 -50.8845
27.0427 -50.4314
29.0868 -51.3931
30.3307 -51.6136
33.415 -50.7683
32.9164 -51.7225
34.1197 -51.8443
34.3532 -50.4119
35.1692 -51.3343
36.6843 -52.7173
38.0526 -52.2197
38.9294 -52.8917
40.518 -52.1416
41.2031 -51.1601
42.5737 -52.3036
43.1999 -50.9183
44.0925 -50.3155
44.854 -51.4061
46.5723 -50.0055
48.3941 -50.547
48.9785 -49.5832
48.8921 -51.4686
51.6385 -51.9806
52.3772 -53.1907
53.5912 -52.9153
54.6655 -53.2657
56.0804 -50.4372
56.7523 -51.2786
-55.3856 -50.3732
-54.2496 -50.4773
-53.6818 -49.3991
-52.1879 -50.5868
-49.801 -49.5775
-48.8822 -50.1962
-47.0617 -50.5887
-47.5621 -51.7658
-45.9566 -50.5343
-45.5179 -49.6308
-45.262 -51.5341
-44.8916 -50.5902
-42.3062 -48.742
-42.509 -50.0634
-41.4426 -50.5563
-37.8828 -50.0563
-36.7694 -50.0609
-35.9733 -50.9866
-35.5107 -52.0899
-33.7182 -50.1889
-32.4281 -48.4969
-31.5029 -50.2997
-29.4345 -50.7012
-28.0872 -50.2241
-27.2847 -50.8916
-26.9396 -52.9721
-25.9533 -50.9245
-24.548 -50.2161
-24.8974 -51.2213
-22.7379 -51.0328
-21.066 -51.3889
-19.7595 -52.1958
-18.9171 -51.1798
-18.5681 -50.2088
-17.5362 -50.1367
-16.6562 -49.6094
-15.2035 -49.6357
-13.767 -50.7884
-12.5558 -48.8581
-10.9231 -48.7799
-10.1411 -50.0136
-9.15773 -50.3063
-7.66118 -49.0906
-6.76548 -49.7442
-5.02396 -50.926
-4.11356 -50.0609
-4.00146 -51.0572
-1.86311 -50.8689
0.193817 -50.2251
0.414229 -51.2351
1.93949 -49.5837
2.50248 -50.5072
3.38657 -48.5281
4.02303 -49.4617
6.92096 -50.2835
7.74257 -49.5923
8.01658 -50.6113
8.9689 -50.951
11.3524 -50.1156
12.8661 -49.8803
13.4942 -51.3031
14.4397 -50.9369
15.6196 -51.7658
16.8388 -51.8109
17.4807 -50.8426
18.9672 -49.6831
20.2248 -49.8653
21.3395 -50.2802
22.3638 -48.7696
23.1726 -50.4703
24.5957 -50.294
26.2106 -49.8896
27.2426 -49.3567
28.0311 -50.06
30.2414 -50.5612
31.3437 -50.1853
32.5068 -49.8779
33.5037 -49.1949
33.5053 -48.1911
34.0743 -47.3166
34.7872 -49.212
35.6964 -50.4394
38.2808 -51.2176
39.4941 -51.4381
40.1827 -50.5419
41.1753 -49.8254
42.1916 -49.9873
43.1865 -49.8697
44.3728 -49.1813
45.4278 -50.0268
46.9315 -48.834
47.3286 -50.7136
50.0269 -50.1315
49.9532 -51.355
51.89 -50.6304
52.7495 -52.102
53.2065 -51.1535
54.3334 -52.1411
57.0555 -50.0948
-56.3116 -49.8987
-55.2471 -47.7541
-55.6849 -49.0709
-54.7195 -49.5588
-52.6361 -49.1505
-51.662 -49.5005
-47.9222 -49.6917
-48.1883 -50.923
-48.0184 -48.5941
-47.4801 -47.6987
-46.8218 -49.4245
-43.8787 -49.8147
-43.2504 -48.41
-41.0284 -47.7895
-41.4543 -49.5539
-40.463 -49.8419
-38.5764 -48.7387
-37.5852 -48.968
-35.5676 -49.6727
-34.8444 -51.324
-33.6714 -48.7529
-33.0634 -47.7116
-31.2349 -49.2805
-30.466 -50.0761
-29.0854 -49.7503
-27.7613 -48.8849
-26.5337 -51.7519
-25.9023 -49.5609
-23.7196 -49.1197
-23.0622 -47.6247
-23.8162 -51.2491
-23.3731 -50.2356
-21.8002 -50.4583
-20.0373 -50.9414
-18.8515 -49.2153
-17.7383 -48.9505
-15.7436 -48.5205
-14.6877 -48.4413
-14.1482 -49.6965
-12.9055 -47.6569
-11.8297 -48.0021
-9.89495 -48.8869
-8.6217 -48.7226
-6.83283 -48.3894
-5.7584 -50.2164
-4.79024 -49.3061
-3.66792 -49.0501
-2.87741 -50.0586
-2.33837 -48.9541
-1.25215 -49.1469
0.861799 -49.3725
2.19033 -48.5476
1.62322 -47.3533
2.9924 -49.4596
2.61897 -47.6004
4.79745 -48.0954
6.37677 -48.1695
5.92083 -49.9372
9.38539 -49.4022
11.9992 -49.2926
14.1259 -49.9026
14.8993 -49.2592
15.555 -50.0902
16.1743 -50.8863
16.6704 -49.7915
17.6795 -49.712
18.4247 -48.7485
19.5621 -48.8435
21.288 -48.9369
21.6895 -47.5541
23.577 -49.5366
25.4668 -49.0678
26.6005 -48.5784
27.6068 -48.347
29.1889 -50.0849
30.3144 -49.5648
31.6779 -49.224
31.3162 -48.1218
32.5348 -48.6001
34.627 -48.2098
35.0244 -46.9996
36.0031 -49.3359
37.262 -50.4859
37.3926 -49.0021
38.0898 -49.9256
39.1339 -50.2121
40.8985 -48.7636
41.9856 -48.7322
43.5659 -48.5617
45.6168 -48.5386
46.6197 -46.2005
46.6173 -47.2924
47.7766 -49.6309
48.4928 -48.3435
50.8496 -50.7471
52.2108 -49.6135
54.0628 -50.4396
56.2007 -49.4481
54.8901 -51.0205
-57.0956 -49.1246
-56.4432 -48.2781
-56.1015 -47.2345
-54.2176 -47.2405
-53.1246 -47.6285
-53.2688 -46.563
-51.9102 -48.2735
-49.0745 -48.6491
-49.89 -47.6168
-48.6181 -47.4165
-46.1956 -46.4187
-46.4891 -47.4832
-45.7402 -48.3379
-44.6141 -49.1401
-42.348 -47.7392
-39.6588 -48.901
-39.2688 -49.9211
-38.0962 -47.064
-36.9358 -46.6929
-36.449 -48.8531
-34.6038 -49.3928
-34.4556 -48.0567
-34.0438 -46.9692
-30.6953 -48.2532
-29.8515 -48.8717
-29.75 -47.6976
-28.7305 -48.6046
-26.9714 -49.6432
-26.4312 -48.6146
-24.9739 -49.0903
-24.2973 -48.1915
-22.7692 -48.6145
-21.4275 -49.5012
-20.7569 -50.2393
-19.899 -49.2657
-17.3369 -47.5451
-16.752 -48.4899
-16.2626 -47.5824
-15.2826 -47.0111
-13.6097 -48.588
-12.7418 -46.2535
-11.7418 -46.9199
-10.8414 -47.7438
-8.54319 -46.9125
-7.05862 -47.4292
-6.0281 -47.0457
-5.78371 -49.1326
-4.19885 -48.197
-4.09265 -46.8687
-2.87482 -48.1203
-1.35748 -48.1288
-0.288841 -48.7956
0.864969 -48.2987
2.60285 -46.3862
3.5828 -47.0722
5.5757 -47.3844
5.36207 -49.0191
7.36967 -48.3184
6.739 -49.2821
8.41575 -48.6188
11.3017 -48.5036
12.8403 -48.7334
13.8535 -48.8897
15.8398 -48.8135
15.418 -46.9704
16.9422 -48.8112
17.3528 -47.7636
18.4245 -47.4481
19.4836 -47.0646
20.3307 -47.915
22.7012 -47.7785
24.4487 -48.9337
24.9985 -47.8279
26.7934 -46.375
26.0415 -47.7368
28.2931 -49.0755
29.3134 -48.8325
30.3659 -48.4108
31.1151 -47.1414
32.0793 -47.4145
33.1157 -46.863
35.3226 -45.7657
35.7112 -47.9159
36.9146 -48.0092
38.9641 -48.553
39.7985 -49.3118
39.9034 -48.1474
42.4104 -47.7369
43.7072 -47.4828
44.7369 -48.0748
45.6229 -46.8932
45.5373 -45.8943
47.6033 -47.1318
49.8845 -49.0552
50.8837 -49.3621
53.4605 -48.4733
54.0951 -46.7909
53.158 -49.9798
55.3969 -48.8246
56.3801 -48.3767
56.1208 -47.1491
57.1769 -47.6373
-55.3056 -45.3429
-55.5811 -46.3388
-52.2285 -47.1426
-50.8187 -48.8906
-53.966 -48.3207
-50.9031 -47.5426
-49.6081 -46.524
-47.239 -46.701
-45.2758 -47.3738
-44.521 -48.1296
-43.5212 -47.2803
-42.1377 -46.4962
-40.1773 -46.0234
-40.1151 -47.2327
-39.1301 -47.8774
-39.0795 -46.8425
-38.0566 -45.6734
-37.0988 -47.919
-35.4334 -48.4834
-35.0451 -47.0734
-32.6652 -46.5894
-32.0793 -47.552
-30.668 -47.244
-29.7906 -46.6841
-28.5048 -46.9249
-28.0398 -47.8304
-25.4027 -47.8714
-23.9846 -47.2211
-23.7336 -46.1328
-22.1857 -47.0173
-21.4973 -48.2708
-20.5691 -47.6747
-19.3667 -48.1581
-18.239 -48.0076
-17.6057 -46.4935
-16.4162 -46.3405
-15.3648 -46.0215
-13.9202 -47.5594
-11.6841 -45.9098
-10.7331 -46.6729
-8.23058 -45.7404
-7.92993 -47.9396
-7.42159 -46.3925
-6.40706 -46.1028
-5.21295 -48.2588
-5.04525 -47.1867
-2.9829 -46.8269
-1.68962 -46.864
-0.0423572 -47.7741
0.286151 -46.4761
2.72198 -44.8752
3.51937 -45.6049
4.38819 -46.3529
5.66965 -46.2512
6.759 -47.0989
8.78473 -47.2434
9.70328 -47.7033
10.1971 -48.8012
12.1366 -47.8947
12.5146 -46.938
14.4848 -47.3383
15.1248 -48.1204
16.3285 -46.291
16.459 -47.3087
17.7621 -46.6336
18.1591 -45.3125
18.7883 -46.3323
20.0847 -46.1631
20.9992 -46.7232
22.3911 -46.627
23.8194 -47.8349
23.5129 -46.8539
27.3244 -47.357
28.677 -47.9579
28.92 -46.7145
29.5774 -47.4877
30.9096 -45.9421
32.9674 -45.6348
34.3055 -45.9402
34.9194 -44.0623
36.0777 -46.6927
37.4764 -46.9969
37.9679 -48.1167
39.6571 -47.1732
40.8337 -46.478
41.2545 -47.6424
42.1151 -46.5895
44.5466 -46.8839
45.0812 -44.9013
48.3847 -46.2193
49.4604 -47.8859
50.5482 -47.3504
50.838 -48.3664
52.2744 -48.5429
54.2522 -49.3069
55.1666 -50.0219
54.9061 -47.8475
56.9488 -46.395
-56.5629 -44.6214
-56.5516 -45.9711
-54.4279 -44.8608
-54.4805 -46.0625
-52.1621 -46.1309
-50.9384 -46.4638
-51.3195 -45.3894
-50.3363 -45.6252
-48.1458 -45.8461
-46.98 -45.6097
-45.9039 -45.3935
-44.9618 -45.8135
-44.4665 -46.7721
-43.9514 -45.8992
-41.1295 -46.6428
-40.439 -45.0592
-39.0706 -45.4782
-39.116 -44.2141
-36.878 -45.4698
-35.8166 -46.132
-36.006 -47.4861
-33.5574 -45.7482
-32.7179 -45.0765
-31.5705 -46.5253
-30.653 -46.131
-29.664 -45.5948
-28.5582 -45.9256
-27.5349 -46.3821
-26.8668 -47.7203
-24.7027 -45.5048
-22.781 -45.6726
-21.847 -46.0622
-21.015 -45.3734
-21.0702 -46.7636
-19.7824 -47.0538
-18.6473 -46.8796
-18.0948 -45.5919
-17.0933 -45.3756
-14.4672 -45.4864
-14.2281 -46.5268
-12.3725 -45.0487
-10.5379 -45.6925
-9.5109 -47.4376
-9.42746 -45.8613
-7.33455 -45.1802
-6.86096 -44.2239
-5.3594 -46.1781
-4.41474 -45.2973
-3.46221 -45.916
-2.32795 -46.011
-0.598262 -46.923
1.50617 -46.2667
1.45476 -44.0386
4.05314 -44.5663
4.8341 -45.4559
5.80865 -45.1604
7.74592 -47.3386
7.28378 -46.0726
8.44229 -46.138
9.51128 -46.3642
10.8261 -47.5613
11.5113 -46.4756
13.6759 -46.714
13.4858 -45.2618
14.4303 -45.8581
16.279 -44.8092
17.1776 -45.6664
18.4546 -42.9787
18.2142 -43.9593
19.4581 -44.2091
21.286 -45.6642
22.2853 -45.5658
23.1973 -44.923
24.0685 -45.807
24.522 -46.709
27.4034 -45.1469
28.1069 -46.0755
29.7401 -46.0016
30.9145 -44.8027
32.0922 -46.4038
34.0256 -44.818
35.6948 -44.7783
36.5629 -45.5316
37.7709 -45.9486
38.6065 -47.2143
39.3511 -45.8787
40.2779 -45.4914
41.5329 -45.7269
43.1461 -46.4019
44.2809 -45.8296
46.1002 -43.7077
46.4549 -44.9106
48.6029 -47.2671
49.6616 -46.8868
50.2687 -45.8161
51.6173 -47.7385
52.6374 -47.3346
54.0999 -45.7621
53.3788 -44.9467
55.0311 -46.4654
55.8474 -45.5852
-55.4911 -44.1235
-53.5363 -43.6402
-53.4305 -45.054
-52.2861 -45.0485
-51.5358 -44.3445
-50.5518 -43.4859
-50.218 -44.4299
-49.0257 -45.381
-47.72 -44.8042
-46.6755 -44.4984
-45.7027 -43.975
-43.8733 -44.6228
-45.037 -44.7477
-42.4002 -44.5232
-41.489 -45.6741
-37.8385 -44.5983
-36.853 -44.1115
-35.842 -43.1817
-36.0468 -44.8047
-34.6426 -45.1815
-32.9101 -43.9065
-31.7321 -45.3885
-30.481 -45.0104
-29.3766 -43.8687
-28.6934 -44.6059
-27.7779 -45.1648
-26.4612 -44.8222
-26.1676 -46.8009
-25.003 -46.8565
-25.3953 -44.6224
-21.8087 -44.7532
-21.8698 -43.4604
-20.9843 -44.1011
-20.1556 -46.042
-19.0778 -45.764
-18.2335 -44.4996
-15.8283 -45.0892
-14.6004 -44.1326
-13.5188 -44.9435
-11.2787 -44.847
-10.9166 -43.5708
-10.1988 -44.6625
-8.79152 -44.7844
-7.90953 -44.1268
-6.73168 -43.1842
-4.7914 -44.1565
-3.65936 -44.3487
-2.76823 -45.0023
-1.29523 -45.7074
-0.219746 -45.5855
1.5829 -45.0466
1.26006 -42.9111
3.31081 -43.865
5.56421 -44.0964
4.25724 -43.438
6.52985 -43.7942
7.11931 -44.9766
9.52786 -44.7637
10.706 -44.9074
10.443 -45.892
12.6683 -45.8903
13.4209 -47.8587
12.5411 -44.8771
15.3874 -45.4218
14.4431 -44.5025
17.4101 -44.6445
19.6332 -42.8607
20.4676 -44.0599
20.3719 -45.1299
21.675 -44.6719
23.064 -43.0184
22.617 -44.0913
24.5186 -42.7769
25.7035 -46.7443
28.2292 -44.4844
28.9565 -45.1953
29.8803 -44.845
30.492 -43.6309
32.0202 -45.3194
32.8735 -44.5576
33.8279 -43.5525
35.6469 -43.16
36.5485 -44.0792
37.5396 -44.2185
38.299 -44.8889
39.4647 -44.8855
41.2113 -44.7506
42.6828 -45.5039
44.3031 -44.2336
45.8757 -42.6949
47.1638 -43.993
47.5654 -45.4599
49.0284 -45.3356
49.9314 -44.8672
51.2326 -45.5027
51.7484 -44.5883
51.7297 -46.6976
54.8848 -45.1448
56.8497 -45.3731
-56.7701 -43.4062
-54.5209 -43.8408
-54.7759 -42.851
-53.7672 -42.4949
-52.4597 -43.9236
-51.8807 -41.8076
-51.6274 -43.0572
-50.8121 -42.0365
-49.4539 -43.47
-48.8239 -44.3678
-47.2943 -43.6322
-46.3443 -43.1895
-45.1481 -43.0836
-42.5767 -42.4894
-42.7171 -45.5082
-40.1946 -43.7915
-38.2302 -43.4427
-36.8371 -42.9064
-34.703 -42.779
-35.0592 -43.8559
-33.7045 -44.7348
-33.9897 -43.5827
-31.7056 -44.1451
-30.3893 -43.8901
-30.1724 -42.2514
-28.8874 -42.9976
-28.0017 -43.6848
-26.9862 -43.5649
-26.0338 -45.7907
-24.802 -43.4169
-23.9268 -44.019
-23.664 -45.0365
-22.8001 -44.5143
-20.0457 -43.7024
-19.7049 -44.8081
-17.3357 -43.3645
-15.9063 -43.9449
-15.487 -42.9826
-13.6331 -43.8043
-12.5911 -43.9048
-12.2521 -42.908
-11.342 -42.4513
-9.79636 -43.4363
-8.82876 -43.7024
-7.88716 -42.921
-5.76447 -42.2887
-6.34812 -45.0757
-5.79846 -43.9277
-2.73066 -43.5377
-1.60993 -44.1827
0.559355 -44.8569
0.538799 -43.5966
2.58027 -41.9445
2.37209 -43.1831
4.66033 -42.0953
5.42375 -42.7419
5.32604 -41.3531
6.65645 -42.795
7.51303 -44.0019
8.26742 -45.1442
11.5285 -45.4781
11.1797 -43.3121
11.5154 -44.3317
12.4665 -43.5051
13.4783 -44.1558
16.3519 -43.6994
17.3352 -43.479
18.3965 -41.9662
19.4385 -41.5192
20.6259 -42.8926
21.4961 -43.4112
22.5829 -41.9833
23.7748 -41.9489
23.9132 -44.0941
25.662 -45.462
26.4156 -44.5698
29.4568 -43.9327
30.8146 -41.9887
31.3847 -42.9334
31.8926 -44.0161
32.7145 -43.3306
33.4657 -42.4034
34.6027 -42.903
36.7401 -43.0705
37.797 -43.1999
38.8776 -43.6756
40.3225 -44.2861
42.3579 -44.091
43.448 -44.8243
45.0886 -43.478
44.8583 -41.8349
47.3566 -42.9563
48.1581 -43.8496
49.4838 -43.7208
50.2208 -43.0445
50.7074 -44.1688
52.7687 -44.1552
52.4636 -45.36
54.1063 -43.8669
55.9788 -44.5916
56.9491 -44.1836
-55.8624 -42.9717
-56.2949 -42.0568
-53.8461 -41.4108
-52.6721 -42.8125
-52.828 -41.1795
-51.5019 -40.8411
-50.0245 -41.3074
-49.7791 -42.3959
-48.5303 -43.1053
-47.6279 -42.5134
-44.6535 -42.1681
-44.0798 -43.5716
-43.084 -43.3942
-41.1709 -44.0993
-41.8559 -43.1771
-39.4879 -43.0737
-38.6144 -42.5174
-37.5416 -41.7582
-36.4612 -41.6251
-33.9644 -41.9739
-33.2795 -42.7654
-32.0674 -43.0818
-31.0657 -43.063
-30.7007 -41.0111
-29.4245 -40.4526
-28.2181 -42.0657
-27.2501 -42.485
-26.0921 -43.0643
-25.2599 -42.2857
-22.9536 -43.0415
-22.059 -42.4519
-20.9648 -42.9911
-18.9209 -43.7068
-18.9616 -42.1507
-16.9004 -44.3986
-16.498 -42.6808
-16.7306 -41.6752
-15.1112 -41.9778
-13.91 -41.8946
-13.3215 -42.8226
-12.7653 -41.8558
-10.2969 -42.5089
-8.66773 -42.2495
-7.95867 -41.1879
-7.18147 -41.8768
-5.02455 -42.9988
-4.20982 -42.3522
-3.74147 -43.2956
-1.44447 -43.2051
-0.742881 -44.7179
-0.457953 -43.5233
-0.667634 -42.1885
3.46412 -42.4974
4.2531 -40.6416
6.05401 -40.4849
6.69154 -41.2491
7.78335 -42.8181
8.94839 -43.7003
10.1221 -43.9114
10.0405 -42.8684
11.9491 -42.5729
12.6454 -41.2087
13.6865 -42.9269
15.4856 -44.2005
16.3452 -41.913
17.4816 -42.4055
17.2921 -41.4059
19.5256 -40.5124
20.4744 -41.6209
21.4819 -42.1283
21.2228 -40.6602
22.1219 -41.0914
25.4957 -43.7247
24.9034 -44.5906
26.9452 -43.4202
28.1824 -43.4311
29.7491 -42.631
31.5945 -41.1754
32.2397 -42.4237
32.6604 -41.4914
35.2855 -42.1478
36.3642 -41.5159
37.3621 -42.2532
39.3254 -42.4628
39.9695 -43.3427
41.4764 -43.6234
42.0413 -42.4201
43.4688 -43.6568
44.1334 -42.8594
45.1361 -40.6655
45.8428 -41.3621
46.781 -42.0123
48.3374 -42.7337
49.3182 -42.3767
51.4326 -41.9875
51.8848 -43.1834
53.3793 -43.1839
54.7116 -43.0072
55.2077 -43.939
55.8275 -42.8416
57.0845 -42.4859
-54.7858 -41.7492
-55.43 -39.9601
-53.5786 -40.4498
-51.9815 -39.0127
-50.4742 -40.2619
-48.8209 -41.3313
-47.8198 -41.4051
-46.8348 -41.7719
-45.8096 -42.2757
-44.161 -41.156
-43.6575 -42.4554
-42.3719 -41.0899
-41.7243 -41.9771
-40.7747 -42.6282
-39.6623 -42.0665
-38.6839 -41.5137
-36.7855 -39.8013
-37.5987 -40.7626
-35.2229 -41.6441
-34.5705 -40.5963
-31.1535 -42.046
-31.7504 -41.2136
-30.3411 -39.6419
-28.3793 -40.581
-29.1723 -41.5908
-27.4802 -41.3288
-26.3451 -41.9834
-24.2761 -41.5174
-22.9722 -41.6485
-21.2028 -41.9187
-20.3288 -41.3715
-19.8679 -42.6826
-19.2463 -41.1433
-18.1847 -42.7972
-17.7529 -41.2742
-15.9673 -40.8324
-14.4243 -42.8861
-14.1103 -40.7714
-12.8507 -40.7799
-11.7462 -40.9407
-10.6943 -41.5815
-9.62932 -41.6022
-6.95966 -40.6747
-6.01783 -41.1762
-4.90613 -41.504
-3.68497 -41.1278
-3.00141 -42.3683
-1.74396 -42.0025
-0.115073 -40.2969
-1.04802 -41.2583
0.137488 -41.5093
0.286413 -42.6266
1.98764 -40.9119
2.89539 -40.4267
7.13391 -40.2772
7.61386 -41.7196
9.08297 -42.5716
9.85697 -41.8905
10.7287 -41.013
10.8593 -42.1451
11.6771 -41.548
13.6611 -41.6801
14.5527 -43.4281
15.5717 -42.5972
16.6942 -40.5266
17.5801 -39.9693
18.3594 -40.9556
20.4233 -39.7092
21.6108 -39.4335
22.5501 -40.0069
23.4694 -40.5678
26.0333 -42.6196
27.4857 -42.5176
28.7502 -42.4215
30.0034 -41.3875
30.7731 -40.6031
32.5873 -38.737
32.1731 -40.3146
33.6118 -40.8415
34.485 -41.3971
35.4888 -41.0352
37.434 -41.1094
38.2908 -41.8773
40.3705 -42.2983
40.3568 -40.788
41.0304 -41.5226
42.0762 -41.3658
42.9861 -42.7835
46.1044 -40.3808
47.3921 -40.9235
48.1651 -41.5664
49.3032 -41.1587
50.5065 -41.5257
52.2029 -41.2241
52.6384 -42.422
53.3332 -41.6669
55.3517 -41.8274
56.3902 -41.3416
57.0361 -40.4483
-56.4751 -41.0491
-56.4446 -39.9622
-55.2002 -38.7391
-54.4058 -39.385
-53.3994 -39.2744
-49.5694 -39.1993
-49.0907 -40.1013
-48.0329 -40.3195
-46.8532 -40.6677
-45.8294 -40.9853
-43.8502 -39.3081
-43.2942 -40.5279
-42.381 -40.0871
-41.7912 -39.286
-41.4233 -40.5807
-40.7767 -41.4455
-39.8143 -40.872
-38.7502 -40.2731
-35.3013 -38.5324
-33.8922 -39.4289
-32.9884 -40.7695
-32.8035 -41.8104
-32.1418 -38.5681
-31.2707 -39.0498
-28.8778 -39.4084
-27.2983 -39.9357
-26.5255 -40.6075
-25.507 -41.0906
-24.6149 -40.1507
-23.6281 -39.8153
-22.0622 -41.0804
-21.1264 -40.7345
-20.483 -39.9699
-19.3452 -39.9426
-18.4028 -40.4626
-16.871 -39.0168
-17.0817 -40.2928
-15.034 -40.0872
-14.0254 -39.371
-12.7791 -39.7827
-10.8154 -40.4739
-9.81066 -40.592
-9.57639 -39.5532
-8.78583 -40.4449
-6.45148 -39.743
-5.52333 -40.3045
-4.5453 -40.5649
-2.60762 -41.3152
-0.854591 -39.5435
-1.2414 -38.4905
0.856109 -39.6826
0.875027 -40.7134
1.14554 -41.9158
1.9737 -39.9042
4.34822 -38.7498
4.83595 -39.7205
6.55666 -38.7236
8.66708 -41.3928
9.58957 -40.744
10.2201 -39.7621
11.3179 -40.1956
13.4264 -40.516
14.6125 -40.768
14.6439 -41.8789
15.6241 -41.0979
16.6697 -39.5212
17.8455 -38.9444
18.5897 -39.9827
20.4379 -38.7159
22.5817 -38.6326
23.4654 -39.1848
24.4355 -39.7153
24.6717 -40.897
25.7886 -41.2172
26.7393 -41.5291
28.0132 -41.6734
28.9301 -41.2425
31.5002 -39.5093
33.07 -39.8809
34.4873 -40.2938
35.2858 -39.5524
36.3333 -40.4139
38.5538 -40.7719
39.3378 -39.9564
39.4138 -41.3828
41.4688 -40.5643
42.6905 -40.5071
43.7746 -40.0488
43.1477 -41.7151
45.0349 -39.6775
47.1084 -39.8844
48.4032 -39.8356
50.332 -40.2428
51.3232 -40.3815
52.8323 -40.2429
53.1084 -39.1221
54.1591 -40.9515
54.3336 -42.0308
55.1565 -40.8306
56.1018 -39.9969
-56.1856 -38.9855
57.1617 -38.3957
-54.2131 -38.2767
-52.5529 -38.1507
-50.8613 -39.2573
-50.0545 -38.0763
-49.3069 -37.0537
-48.3844 -39.0006
-47.1672 -39.4535
-45.9404 -39.9098
-44.9539 -40.5058
-43.2864 -38.2071
-42.8621 -39.1619
-42.7465 -36.8988
-40.7926 -39.7567
-40.9636 -38.6127
-39.7459 -38.9999
-39.099 -38.1944
-38.093 -39.2494
-32.9256 -39.7112
-34.2743 -38.347
-31.9372 -39.8912
-31.8756 -37.5678
-29.9508 -38.6851
-29.2018 -37.892
-28.0443 -38.7802
-26.7379 -39.0436
-25.6441 -40.0551
-24.4805 -39.06
-22.8483 -40.4628
-22.3676 -39.4721
-21.3219 -39.3434
-20.0835 -38.9316
-18.9654 -39.0128
-17.8307 -39.3817
-17.2011 -37.4232
-16.152 -39.7677
-15.1809 -38.9421
-13.1405 -38.6611
-12.0814 -38.959
-10.9518 -39.4757
-11.1484 -38.4105
-9.44296 -38.41
-7.68694 -39.9293
-7.41988 -38.8281
-4.60163 -39.4993
-2.95179 -40.3556
-1.62702 -40.3645
-1.44976 -37.4824
-0.184437 -38.7923
0.802798 -38.4765
2.25553 -37.8712
2.90513 -39.0467
3.69993 -39.7068
5.25952 -37.8646
5.55102 -38.9583
7.67532 -37.5742
8.35467 -39.9237
7.44176 -39.2611
9.00567 -39.1551
12.6016 -39.7959
13.4739 -38.3683
14.5041 -39.5758
15.4335 -40.0312
15.7394 -38.9721
16.7898 -38.5269
18.6898 -38.0324
19.087 -39.0786
21.4607 -38.2842
23.9353 -38.2462
25.1277 -37.7789
25.4872 -39.785
26.4732 -40.4031
27.618 -40.5471
27.6861 -39.4537
28.6953 -40.1908
30.3675 -39.6386
31.8547 -37.9404
33.0264 -37.5872
33.9303 -39.0347
34.9995 -38.3806
36.4887 -39.3335
37.636 -39.8907
38.5084 -39.2129
40.5703 -39.3247
41.5839 -39.5096
42.7316 -39.4848
42.8278 -37.657
43.4489 -38.7886
44.1505 -38.0631
45.7376 -38.932
47.5967 -38.7991
49.4077 -39.688
49.8909 -38.6176
51.04 -38.9393
52.0636 -39.5862
51.8666 -38.0761
53.8476 -39.8725
56.0504 -37.7112
55.245 -39.273
56.9406 -39.4143
-55.0543 -37.4072
-54.0662 -37.1359
-53.1186 -36.8334
-51.3267 -38.0363
-51.7004 -36.8785
-48.3207 -37.4589
-49.0797 -38.2804
-46.3633 -37.4503
-46.3083 -38.5878
-45.1545 -39.2489
-43.7685 -37.0871
-42.2309 -38.373
-42.0017 -36.1897
-41.7805 -37.1945
-40.2075 -37.8862
-38.5956 -37.2477
-37.634 -37.8412
-36.2656 -38.8497
-35.6599 -40.677
-34.8003 -37.3926
-33.278 -38.5656
-31.9101 -36.2111
-30.5336 -37.7473