ITEM: TIMESTEP
500
ITEM: NUMBER OF ATOMS
10000
ITEM: BOX BOUNDS pp pp pp
-5.0000000000000000e+01 5.0000000000000000e+01
-5.0000000000000000e+01 5.0000000000000000e+01
-1.0000000000000000e+01 1.0000000000000000e+01
ITEM: ATOMS x y
-49.9988 -50.0041
-48.9997 -49.9854
-48.0004 -50.0342
-47.0009 -49.9873
-45.9981 -50.0187
-44.9998 -49.9891
-43.9997 -49.998
-42.9962 -49.9736
-41.9952 -50.0038
-40.9939 -50.0185
-39.994 -49.9826
-38.9954 -50.0443
-37.9964 -49.9702
-36.9966 -50.0433
-35.9951 -49.9917
-34.9952 -49.9518
-33.9998 -50.0455
-32.9999 -49.9771
-31.9982 -50.0038
-30.9987 -50.0217
-29.9928 -50.0028
-28.9921 -49.9915
-27.9929 -49.9984
-26.994 -50.0214
-25.9938 -49.998
-24.9944 -49.9933
-23.9949 -49.9975
-22.994 -49.9733
-21.996 -49.9958
-20.9919 -50.0291
-19.9941 -49.9896
-18.995 -50.0133
-17.996 -49.9928
-16.9968 -49.9924
-15.9962 -50.0109
-14.9975 -49.9871
-13.9969 -49.9968
-12.998 -49.9963
-11.9972 -50.0068
-10.9933 -50.0112
-9.99225 -49.9922
-8.99374 -49.9982
-7.99668 -49.9423
-7.00051 -50.0251
-6.0005 -50.0225
-5.00027 -49.9872
-4.00276 -50.0323
-3.0052 -49.9831
-2.00605 -50.0115
-1.0068 -49.9703
-0.00809407 -50.0106
0.992519 -49.9966
1.99162 -50.0143
2.99578 -49.9949
3.99462 -50.0111
4.99902 -49.9985
5.99946 -49.9909
6.99861 -50.0254
7.99799 -49.979
8.99674 -50.0157
9.99681 -50.0022
10.9971 -50.0161
11.9978 -49.9823
12.9962 -50.0379
13.9958 -50.0026
14.9948 -50.013
15.9933 -49.9989
16.994 -50.0038
17.9934 -50.0157
18.9921 -49.9622
19.9919 -50.011
20.994 -50.02
21.9954 -50.0006
22.9995 -49.9731
23.9985 -50.0216
24.9975 -49.9927
25.9968 -50.0218
26.9974 -49.9574
27.9956 -50.0048
28.9945 -50.0051
29.9946 -49.999
30.9994 -50.0243
31.9984 -49.9906
32.998 -50.0331
33.9971 -50.0217
34.9989 -49.9574
36.0002 -50.0363
36.9999 -49.9974
37.9997 -50.0128
39.0001 -49.9768
39.9971 -50.0582
40.9955 -49.963
41.9953 -50.0135
42.996 -49.9943
43.9958 -50.0061
44.9961 -50.0076
46.0006 -50.0144
46.9997 -49.9752
47.999 -50.0418
48.9978 -49.9793
-49.9907 -49.0048
-48.9896 -48.9846
-47.9918 -49.0309
-46.9897 -48.9826
-45.9877 -49.0168
-44.987 -48.9909
-43.9857 -48.9986
-42.987 -48.9732
-41.9847 -49.0011
-40.9851 -49.0191
-39.9857 -48.9825
-38.9875 -49.035
-37.9905 -48.969
-36.9912 -49.0428
-35.9919 -48.9927
-34.9888 -48.9519
-33.993 -49.0446
-32.9977 -48.9759
-31.9989 -49.0014
-30.9995 -49.0219
-29.9999 -49.0031
-28.9997 -48.9917
-27.9979 -48.9991
-26.9941 -49.0205
-25.9929 -48.9986
-24.9926 -48.9931
-23.992 -48.9981
-22.99 -48.9725
-21.9904 -48.9955
-20.9914 -49.0302
-19.9928 -48.9897
-18.9932 -49.012
-17.9934 -48.9935
-16.9936 -48.9893
-15.9918 -49.0102
-14.9915 -48.9848
-13.9916 -48.9958
-12.985 -48.9965
-11.9839 -49.0027
-10.9842 -49.0114
-9.98378 -48.9922
-8.98225 -48.9963
-7.98358 -48.9398
-6.98621 -49.0252
-5.98597 -49.0216
-4.98674 -48.988
-3.98511 -49.0334
-2.98592 -48.9823
-1.97956 -49.0123
-0.980707 -48.9709
0.0178452 -49.0114
1.01812 -48.9964
2.01969 -49.0125
3.01944 -48.9934
4.02222 -49.0122
5.02211 -48.9965
6.02176 -48.9908
7.01977 -49.0255
8.01829 -48.9781
9.01937 -49.0154
10.0183 -48.999
11.0199 -49.0168
12.0206 -48.9829
13.0179 -49.0385
14.0158 -48.9991
15.0154 -49.0121
16.0195 -48.9984
17.0198 -49.0037
18.0224 -49.0161
19.0207 -48.9627
20.0216 -49.009
21.024 -49.0207
22.0247 -49.0007
23.0232 -48.9704
24.0224 -49.0231
25.0241 -48.989
26.0233 -49.0228
27.0228 -48.959
28.023 -49.0052
29.0228 -49.0053
30.0217 -48.9982
31.0218 -49.0228
32.0203 -48.9916
33.0213 -49.0337
34.0206 -49.0223
35.0182 -48.9568
36.0146 -49.038
37.0142 -48.9983
38.0142 -49.0123
39.0136 -48.9763
40.0141 -49.0589
41.0116 -48.964
42.0118 -49.0142
43.0127 -48.9941
44.0129 -49.0046
45.015 -49.0095
46.0144 -49.0143
47.0125 -48.9771
48.0102 -49.042
49.0091 -48.9772
-49.999 -48.0044
-48.9962 -47.9845
-47.9964 -48.0292
-46.9974 -47.9815
-45.9998 -48.0159
-44.9981 -47.9917
-43.9982 -47.9984
-42.9981 -47.9727
-41.9986 -48.0024
-40.9912 -48.0165
-39.9912 -47.9821
-38.9923 -48.0339
-37.9939 -47.9693
-36.9972 -48.0428
-35.9997 -47.9928
-35.0016 -47.9503
-34.0043 -48.0452
-33.0059 -47.9747
-32.0052 -48.0016
-31.0031 -48.0196
-30.0024 -48.0007
-29.003 -47.991
-28.0024 -48.0003
-26.9982 -48.0191
-25.9972 -47.9998
-24.9974 -47.9933
-23.9968 -47.9994
-22.9966 -47.9714
-21.9977 -47.9956
-20.9954 -48.0294
-19.9969 -47.9901
-18.9974 -48.0127
-17.9967 -47.9918
-16.9967 -47.9899
-15.9974 -48.0088
-14.998 -47.9859
-13.9995 -47.9952
-12.9983 -47.9963
-11.9971 -47.9998
-10.9947 -48.0072
-9.99457 -47.9937
-8.99514 -47.9966
-7.99553 -47.9352
-6.99913 -48.0257
-5.99898 -48.0221
-4.99502 -47.9895
-3.99761 -48.0335
-3.00009 -47.9817
-1.99999 -48.0108
-1.00092 -47.9719
2.49683e-05 -48.0126
0.998796 -47.9971
2.0003 -48.0122
2.99758 -47.9932
3.99697 -48.0099
4.99609 -47.9967
5.99738 -47.9918
6.9971 -48.0254
7.99584 -47.9773
8.99496 -48.0161
9.99619 -47.998
10.9956 -48.0176
11.9947 -47.9826
12.9924 -48.038
13.9908 -47.9999
14.9916 -48.0129
15.9909 -47.9955
16.9892 -48.0047
17.9951 -48.0156
18.9934 -47.9636
19.9911 -48.011
20.9921 -48.0216
21.9979 -48.0011
22.9962 -47.9718
23.995 -48.0245
24.9947 -47.9906
25.9963 -48.0223
26.9962 -47.9607
27.9944 -48.0041
28.9977 -48.0062
29.9972 -47.9987
30.9965 -48.0241
31.9958 -47.9928
32.9945 -48.0311
33.9975 -48.022
34.9939 -47.9568
35.9967 -48.0381
36.9955 -47.9996
37.9952 -48.0094
38.9986 -47.9764
39.996 -48.059
40.9925 -47.9648
41.9964 -48.0152
42.9963 -47.9932
43.9994 -48.0017
45.0039 -48.0101
46.0055 -48.0153
47.0044 -47.9771
48.0032 -48.0396
49.0008 -47.978
-50.0188 -47.0052
-49.0192 -46.9862
-48.021 -47.0299
-47.0203 -46.9821
-46.0188 -47.0124
-45.0189 -46.9929
-44.0151 -46.9978
-43.014 -46.973
-42.0133 -47.0029
-41.0128 -47.016
-40.0116 -46.9794
-39.0114 -47.0347
-38.0092 -46.9707
-37.006 -47.0428
-36.0068 -46.9905
-35.0064 -46.9458
-34.0123 -47.0465
-33.0123 -46.9764
-32.0117 -47.0026
-31.0108 -47.0207
-30.0093 -47.0016
-29.009 -46.9897
-28.0097 -47.0011
-27.009 -47.0169
-26.0088 -47.0008
-25.0091 -46.9938
-24.0054 -46.9971
-23.0051 -46.9729
-22.0027 -46.9952
-21.0022 -47.0281
-20.0009 -46.9902
-18.997 -47.014
-17.9969 -46.9921
-16.9975 -46.9908
-15.9981 -47.0094
-14.9985 -46.9863
-13.9971 -46.9927
-12.9951 -46.9952
-11.9958 -46.9994
-10.9948 -47.0048
-9.99625 -46.9928
-8.99458 -46.9978
-7.99611 -46.9352
-6.99763 -47.0261
-5.99731 -47.0225
-4.99836 -46.9888
-3.99737 -47.0334
-3.00009 -46.9826
-1.99651 -47.0099
-0.997388 -46.9722
0.000156626 -47.011
1.00094 -46.9967
2.00032 -47.013
2.99956 -46.9901
4.00051 -47.0076
5.0011 -46.9957
6.00211 -46.9915
7.00038 -47.0258
7.99853 -46.9785
9.00002 -47.0166
9.99982 -46.9994
11.0005 -47.0164
11.9994 -46.983
12.9978 -47.0365
13.9967 -47.0006
14.9981 -47.0132
15.9971 -46.9954
16.9976 -47.0041
17.9962 -47.0145
18.9947 -46.964
19.9949 -47.0087
20.9973 -47.0198
21.9976 -47.0021
22.9965 -46.9675
23.9952 -47.0245
24.9987 -46.9887
25.9998 -47.0215
26.9993 -46.9579
27.9981 -47.0047
28.9986 -47.006
29.9969 -46.9994
30.9978 -47.0249
32.0007 -46.9905
32.9995 -47.0316
33.9994 -47.0223
34.9979 -46.9577
35.9975 -47.0373
36.9958 -46.9984
37.9948 -47.0085
38.9932 -46.9751
39.9904 -47.0592
40.9854 -46.9648
41.9835 -47.0156
42.984 -46.9909
43.986 -47.0016
44.9854 -47.0118
45.9848 -47.0163
46.9871 -46.9772
47.9855 -47.0363
48.9834 -46.9794
-49.9931 -46.003
-48.9943 -45.9868
-47.9952 -46.0311
-46.996 -45.9825
-45.9977 -46.0135
-44.9976 -45.9913
-43.9982 -45.9986
-42.9994 -45.9728
-41.9983 -46.0015
-40.9973 -46.0135
-39.9993 -45.9783
-39.0014 -46.0353
-38.0036 -45.9719
-37.0024 -46.043
-36.0021 -45.9908
-35.0044 -45.9462
-34.0092 -46.0457
-33.0116 -45.9751
-32.0122 -46.0029
-31.0138 -46.0212
-30.0153 -46.0016
-29.0131 -45.9899
-28.0105 -46.0019
-27.0108 -46.0158
-26.0114 -46.0017
-25.0107 -45.9941
-24.0084 -45.9978
-23.0101 -45.9745
-22.0093 -45.995
-21.0091 -46.0287
-20.0101 -45.9906
-19.0114 -46.0143
-18.0119 -45.9925
-17.0134 -45.9912
-16.0123 -46.0092
-15.0127 -45.9873
-14.0066 -45.9913
-13.0072 -45.9952
-12.0072 -45.9981
-11.0081 -46.0042
-10.0082 -45.9939
-9.00726 -45.9996
-8.01092 -45.9352
-7.01584 -46.0267
-6.01648 -46.0229
-5.01707 -45.9895
-4.01845 -46.0339
-3.01799 -45.9835
-2.0177 -46.0089
-1.01542 -45.9718
-0.00734294 -46.0113
0.998229 -45.9968
1.99997 -46.0143
3.00009 -45.9909
4.00306 -46.0071
5.00357 -45.9965
6.00371 -45.9922
7.00263 -46.0261
8.00175 -45.9794
9.00113 -46.0155
10.0016 -46.0004
11.0038 -46.017
12.0034 -45.9832
13.0095 -46.0373
14.0094 -45.9994
15.0095 -46.0134
16.0101 -45.9953
17.0097 -46.0032
18.0111 -46.0148
19.0137 -45.9644
20.0128 -46.0097
21.0127 -46.0174
22.0207 -46.0008
23.0196 -45.9664
24.0176 -46.0256
25.0178 -45.9896
26.0173 -46.0171
27.0154 -45.9558
28.0161 -46.004
29.0163 -46.0072
30.0153 -46.0001
31.0163 -46.0256
32.0161 -45.9869
33.0153 -46.0298
34.0173 -46.0207
35.0148 -45.9582
36.0117 -46.0387
37.0104 -45.9991
38.0121 -46.0088
39.0134 -45.9761
40.0115 -46.0599
41.0095 -45.9606
42.0084 -46.0154
43.0085 -45.9915
44.0092 -46.0019
45.0086 -46.0118
46.0112 -46.0133
47.0096 -45.9778
48.0079 -46.0361
49.0069 -45.9795
-50.0106 -45.0038
-49.0097 -44.9865
-48.0068 -45.0325
-47.0046 -44.9827
-46.0034 -45.0135
-45.004 -44.9876
-44.0057 -44.9981
-42.9979 -44.9737
-41.9974 -45.0018
-40.993 -45.0127
-39.9926 -44.9779
-38.9937 -45.0334
-37.9935 -44.9716
-36.9912 -45.04
-35.9916 -44.9918
-34.9889 -44.9434
-33.9931 -45.0461
-32.9948 -44.9754
-31.9948 -45.003
-30.9894 -45.0229
-29.9881 -45.0019
-28.9889 -44.9889
-27.9863 -45.0004
-26.9833 -45.0142
-25.9812 -45.004
-24.9792 -44.996
-23.9799 -44.997
-22.9794 -44.9758
-21.9796 -44.9953
-20.9809 -45.03
-19.9803 -44.9916
-18.9819 -45.015
-17.9822 -44.9947
-16.9818 -44.9913
-15.9826 -45.0096
-14.9834 -44.9863
-13.9837 -44.9916
-12.9839 -44.9939
-11.9836 -44.9977
-10.9827 -45.0038
-9.98375 -44.9937
-8.98397 -45.0009
-7.98458 -44.934
-6.98952 -45.0276
-5.99001 -45.0224
-4.98929 -44.9897
-3.98988 -45.0333
-2.9904 -44.9844
-1.99039 -45.0101
-0.990497 -44.9677
0.00915351 -45.0117
1.00903 -44.9971
2.0077 -45.0158
3.00812 -44.991
4.0069 -45.0075
5.0064 -44.9951
6.00658 -44.9877
7.00625 -45.0258
8.00392 -44.9802
9.00307 -45.0167
10.0029 -45.0024
11.0056 -45.017
12.0044 -44.9823
13.0016 -45.0372
14.0009 -45.0003
15 -45.012
15.9988 -44.9938
16.999 -45.0027
17.9985 -45.0135
18.999 -44.9649
19.9967 -45.0098
20.9963 -45.016
21.9977 -45.0023
22.9968 -44.9663
23.9935 -45.0251
24.9936 -44.9892
25.993 -45.016
26.9904 -44.9547
27.9891 -45.0046
28.9883 -45.0068
29.9885 -44.9991
30.9885 -45.0262
31.9883 -44.9845
32.9862 -45.0282
33.9852 -45.0202
34.9837 -44.9596
35.9817 -45.0391
36.9813 -45.0002
37.9837 -45.0112
38.9854 -44.9765
39.9817 -45.0592
40.9766 -44.9618
41.9774 -45.0144
42.9795 -44.9923
43.9786 -45.0018
44.9801 -45.0133
45.9822 -45.0149
46.9812 -44.9795
47.9816 -45.037
48.9894 -44.979
-49.9814 -44.002
-48.9817 -43.9879
-47.9836 -44.0317
-46.9817 -43.9779
-45.9824 -44.0106
-44.9795 -43.9875
-43.9779 -43.9962
-42.9776 -43.9724
-41.978 -44.003
-40.9779 -44.0128
-39.9793 -43.9751
-38.9799 -44.0309
-37.9832 -43.9718
-36.9848 -44.0409
-35.9843 -43.9925
-34.9854 -43.9403
-33.9864 -44.0473
-32.9893 -43.9756
-31.9881 -44.0018
-30.9896 -44.0214
-29.9906 -44.0015
-28.9905 -43.987
-27.9917 -44.0017
-26.9935 -44.0107
-25.9936 -44.0043
-24.9939 -43.9936
-23.9925 -43.9974
-22.9925 -43.9767
-21.9934 -43.9945
-20.9949 -44.0311
-19.9959 -43.9831
-18.9973 -44.0141
-17.9986 -43.99
-16.9993 -43.9927
-16.0014 -44.0081
-15.0021 -43.9868
-14.0006 -43.9923
-13.0006 -43.9938
-11.999 -43.9982
-10.9986 -44.0041
-9.99735 -43.9936
-8.99732 -44.0007
-7.99681 -43.9319
-7.00252 -44.0292
-6.00207 -44.0176
-4.99888 -43.9896
-3.99759 -44.0335
-3.00017 -43.9851
-2.00111 -44.0108
-1.00156 -43.969
0.00232034 -44.0123
1.00189 -43.9963
2.00189 -44.0166
3.00259 -43.9915
4.00318 -44.0072
5.00404 -43.9948
6.00514 -43.9875
7.00428 -44.025
8.00184 -43.9808
9.00118 -44.0123
10.0072 -44.0024
11.0074 -44.0129
12.0072 -43.9828
13.0061 -44.037
14.0087 -43.9966
15.0175 -44.0112
16.0173 -43.9939
17.022 -44.0025
18.0222 -44.0147
19.0203 -43.9658
20.0232 -44.0104
21.022 -44.0139
22.0215 -44.0033
23.0211 -43.965
24.0218 -44.0252
25.0225 -43.99
26.0222 -44.0161
27.0215 -43.9559
28.0227 -44.0048
29.0279 -44.008
30.0311 -43.9957
31.0354 -44.0229
32.0346 -43.9844
33.0328 -44.0304
34.0355 -44.0217
35.0329 -43.9595
36.0295 -44.0394
37.0322 -44.0024
38.0319 -44.014
39.0312 -43.9772
40.0274 -44.0588
41.0231 -43.9626
42.0217 -44.0164
43.0201 -43.9928
44.02 -44.0012
45.0219 -44.0158
46.0212 -44.0145
47.0201 -43.9797
48.0179 -44.039
49.0152 -43.9789
-50.0014 -43.0011
-49.0021 -42.9875
-48.0019 -43.0323
-47.0027 -42.9785
-45.9978 -43.0104
-44.998 -42.9875
-43.9979 -42.9973
-42.9965 -42.9729
-41.9939 -43.0034
-40.9928 -43.0106
-39.9925 -42.9753
-38.9899 -43.0292
-37.9847 -42.9716
-36.9879 -43.0388
-35.9831 -42.993
-34.9852 -42.938
-33.9914 -43.0457
-32.9938 -42.9769
-31.9836 -43.0023
-30.984 -43.0229
-29.9851 -43.0024
-28.9848 -42.9872
-27.9852 -43.0011
-26.9863 -43.0101
-25.986 -43.0033
-24.986 -42.9937
-23.986 -42.9978
-22.9839 -42.9772
-21.982 -42.99
-20.9813 -43.0318
-19.982 -42.9833
-18.9831 -43.0127
-17.9845 -42.9886
-16.982 -42.9923
-15.9819 -43.0082
-14.9829 -42.9875
-13.9823 -42.9925
-12.9811 -42.9946
-11.9809 -42.9983
-10.9809 -43.0024
-9.97991 -42.992
-8.98014 -43.0026
-7.97715 -42.9332
-6.98228 -43.0291
-5.98256 -43.0168
-4.98314 -42.9889
-3.98097 -43.035
-2.98209 -42.9811
-1.98319 -43.0105
-0.984634 -42.9681
0.0153758 -43.0114
1.01447 -42.9961
2.01356 -43.0133
3.01386 -42.9923
4.01371 -43.0081
5.0161 -42.9933
6.0172 -42.9881
7.01579 -43.0265
8.01424 -42.9824
9.01336 -43.0138
10.012 -43.0023
11.0107 -43.0128
12.0107 -42.9772
13.0096 -43.035
14.0085 -42.996
15.0088 -43.0117
16.0076 -42.994
17.0088 -43.0004
18.0095 -43.0145
19.0087 -42.966
20.0069 -43.0108
21.0068 -43.0156
22.009 -43.0042
23.0125 -42.9627
24.0102 -43.0254
25.0094 -42.9912
26.0112 -43.0144
27.0095 -42.9566
28.0087 -43.0022
29.0082 -43.0087
30.0093 -42.992
31.0092 -43.0234
32.0096 -42.9859
33.008 -43.031
34.0089 -43.0225
35.0087 -42.9609
36.0058 -43.0386
37.0068 -42.9981
38.0054 -43.0139
39.0044 -42.9781
40.0046 -43.0594
41.0014 -42.9635
42.0001 -43.0169
43.0003 -42.9936
43.9996 -43.0024
45.0004 -43.0171
46.0005 -43.0151
46.9994 -42.9778
47.9995 -43.0401
48.9986 -42.9795
-50.0094 -41.9953
-49.0087 -41.9838
-48.0111 -42.033
-47.0119 -41.9782
-46.0114 -42.0091
-45.008 -41.9888
-44.0083 -41.9974
-43.0099 -41.9721
-42.0072 -42.0023
-41.0028 -42.0102
-40.0045 -41.9752
-39.0053 -42.0282
-38.0059 -41.9716
-37.0096 -42.0376
-36.0097 -41.9943
-35.0119 -41.9393
-34.0178 -42.0433
-33.0195 -41.977
-32.0159 -42.0026
-31.0165 -42.0218
-30.0167 -42.0022
-29.0179 -41.9879
-28.0189 -42.0023
-27.0185 -42.008
-26.018 -42.0013
-25.0179 -41.9934
-24.0179 -41.9993
-23.0189 -41.979
-22.0195 -41.9901
-21.0139 -42.0309
-20.0129 -41.9822
-19.0136 -42.0116
-18.015 -41.989
-17.0126 -41.9923
-16.0114 -42.0089
-15.0116 -41.9892
-14.0102 -41.9932
-13.0099 -41.9948
-12.0085 -41.9978
-11.0086 -42.0031
-10.0103 -41.9915
-9.01161 -42.0031
-8.01355 -41.9359
-7.01635 -42.0316
-6.01576 -42.017
-5.01012 -41.9879
-4.01136 -42.0364
-3.01285 -41.9801
-2.01401 -42.0098
-1.01353 -41.9698
-0.0143101 -42.0122
0.98556 -41.9953
1.99302 -42.0137
2.99474 -41.9924
3.99556 -42.01
4.9964 -41.9902
5.99696 -41.9893
6.99689 -42.0231
7.99617 -41.9819
9.00687 -42.0131
10.0141 -42.0025
11.0156 -42.0115
12.015 -41.9784
13.0138 -42.0363
14.0128 -41.9966
15.0123 -42.0096
16.0127 -41.9848
17.0148 -41.9998
18.0156 -42.0156
19.0146 -41.9655
20.0127 -42.007
21.0134 -42.0162
22.0126 -42.0048
23.011 -41.9606
24.0088 -42.0218
25.0103 -41.9912
26.0153 -42.0151
27.0127 -41.9568
28.0124 -42.0012
29.0116 -42.0092
30.0109 -41.9915
31.0093 -42.0214
32.0087 -41.9874
33.0072 -42.0303
34.0071 -42.0223
35.0077 -41.9616
36.0047 -42.0385
37.0043 -41.9988
38.004 -42.0132
39.0032 -41.9789
40.0025 -42.0595
40.9987 -41.9644
41.9965 -42.0166
42.997 -41.9937
43.9971 -42.0032
44.9966 -42.0174
45.9964 -42.0079
46.9963 -41.9779
47.9944 -42.0398
48.9919 -41.9797
-49.9759 -40.995
-48.9762 -40.9845
-47.9762 -41.0323
-46.9779 -40.9793
-45.9776 -41.0102
-44.974 -40.9876
-43.9751 -40.9987
-42.977 -40.9697
-41.9768 -40.9969
-40.9768 -41.0117
-39.9772 -40.9764
-38.9762 -41.0282
-37.9769 -40.9726
-36.98 -41.0372
-35.9757 -40.9952
-34.9766 -40.9375
-33.9802 -41.045
-32.9822 -40.9778
-31.9839 -41.003
-30.9849 -41.0229
-29.9831 -41.003
-28.9838 -40.9879
-27.9837 -41.0041
-26.9848 -41.0092
-25.9801 -41.0032
-24.9802 -40.9947
-23.9805 -40.9979
-22.9801 -40.978
-21.98 -40.9917
-20.9822 -41.031
-19.9819 -40.9841
-18.9823 -41.01
-17.9838 -40.9885
-16.9842 -40.9919
-15.9825 -41.0091
-14.982 -40.9869
-13.9837 -40.993
-12.9835 -40.9971
-11.9833 -40.9975
-10.9834 -41.0041
-9.98409 -40.9908
-8.98186 -41.0041
-7.98326 -40.9372
-6.98907 -41.0284
-5.98915 -41.0185
-4.99059 -40.9802
-3.99277 -41.0363
-2.99403 -40.9788
-1.99266 -41.0082
-0.990534 -40.9662
0.00800713 -41.0117
1.00651 -40.996
2.00755 -41.014
3.00793 -40.993
4.00722 -41.0098
5.00844 -40.9895
6.00783 -40.9884
7.00701 -41.0239
8.00523 -40.9818
9.00348 -41.0076
10.0063 -41.0018
11.0054 -41.009
12.0045 -40.9795
13.0021 -41.0389
14.0005 -40.9984
15.0012 -41.0109
16.0007 -40.983
17.0002 -41.0003
18.0019 -41.0164
19.0002 -40.9658
19.9996 -41.009
21.0006 -41.017
22.0018 -41.0057
23.0009 -40.9583
24.0003 -41.023
24.9999 -40.9909
25.9996 -41.016
27.0026 -40.9578
28.0034 -40.9995
29.0046 -41.0103
30.0027 -40.9896
31.004 -41.0209
32.0036 -40.9874
33.0037 -41.0278
34.0038 -41.023
35.0013 -40.9613
35.9988 -41.0382
36.9973 -40.999
38.0002 -41.0073
39.0003 -40.9788
39.9993 -41.0578
40.9958 -40.964
41.9944 -41.0173
42.9987 -40.9922
44.0103 -41.0005
45.014 -41.018
46.0144 -41.0062
47.0214 -40.9766
48.0233 -41.04
49.0249 -40.9808
-49.996 -39.9936
-48.9961 -39.9787
-47.9981 -40.0345
-46.9994 -39.9793
-46.0012 -40.0115
-45.0015 -39.9884
-44.0015 -39.9994
-43.0006 -39.9687
-42.0007 -39.9979
-41.0025 -40.0118
-40.0031 -39.9737
-39.0047 -40.026
-38.0061 -39.974
-37.0077 -40.0373
-36.0091 -39.9942
-35.0094 -39.9366
-34.0151 -40.0456
-33.0184 -39.9768
-32.0208 -40.0045
-31.0209 -40.0236
-30.0206 -40.0026
-29.0222 -39.9872
-28.0235 -39.9997
-27.0221 -40.0107
-26.0231 -40.0049
-25.0232 -39.9919
-24.0221 -39.9978
-23.0229 -39.9791
-22.0222 -39.989
-21.0212 -40.0296
-20.023 -39.9815
-19.0228 -40.01
-18.0235 -39.9885
-17.0239 -39.9886
-16.0235 -40.0011
-15.022 -39.9857
-14.0231 -39.9941
-13.021 -39.9987
-12.0182 -39.995
-11.0182 -40.0046
-10.0184 -39.9894
-9.01876 -40.004
-8.02163 -39.937
-7.02385 -40.0293
-6.02478 -40.0177
-5.02554 -39.9809
-4.0273 -40.0364
-3.02757 -39.9782
-2.02355 -40.0069
-1.02168 -39.9658
-0.0217679 -40.0127
0.977564 -39.9971
1.98039 -40.0143
2.99214 -39.9924
3.99089 -40.0098
4.99148 -39.9903
5.99258 -39.9892
6.99353 -40.0198
7.99561 -39.9805
8.99817 -40.0082
10.002 -40.0007
11.0014 -40.0107
12.0031 -39.9803
13.0027 -40.0392
14.004 -39.9989
15.005 -40.0098
16.005 -39.9834
17.0039 -40.0001
18.003 -40.0175
19.0011 -39.9664
20.0031 -40.0077
21.004 -40.0129
22.0043 -40.0066
23.0068 -39.9571
24.0055 -40.0235
25.0056 -39.9915
26.0054 -40.0169
27.0026 -39.9581
28.0014 -39.9938
29.0012 -40.0113
30.0017 -39.989
31.0007 -40.0205
32.0034 -39.9885
33.0021 -40.0259
34.0025 -40.0219
34.9995 -39.96
35.9976 -40.0372
36.9963 -39.9991
37.9972 -40.0078
38.9984 -39.9793
39.9948 -40.0568
40.9965 -39.9657
41.9994 -40.0143
42.9993 -39.9906
43.9995 -40.0011
44.9993 -40.0199
46.0006 -40.0058
47.0008 -39.9766
48.0013 -40.0395
49.0039 -39.9817
-49.9736 -38.9898
-48.9728 -38.9784
-47.9741 -39.0357
-46.976 -38.9789
-45.9744 -39.0071
-44.9756 -38.9898
-43.9761 -38.9958
-42.9769 -38.9696
-41.9776 -38.9962
-40.9786 -39.0121
-39.9801 -38.9727
-38.9815 -39.022
-37.9813 -38.9755
-36.9816 -39.0291
-35.9776 -38.9931
-34.9798 -38.9374
-33.9841 -39.0473
-32.9818 -38.9792
-31.9803 -39.0049
-30.9796 -39.0211
-29.9799 -39.0037
-28.9763 -38.9892
-27.9768 -39.0008
-26.9767 -39.0075
-25.9769 -39.0068
-24.9779 -38.9929
-23.978 -38.998
-22.9778 -38.9793
-21.9773 -38.9879
-20.9754 -39.0311
-19.9763 -38.9829
-18.9737 -39.0119
-17.9735 -38.9907
-16.9737 -38.9895
-15.9746 -39.0002
-14.9736 -38.9872
-13.9731 -38.995
-12.972 -39.0008
-11.9721 -38.9964
-10.972 -39.0056
-9.97283 -38.9891
-8.96989 -39.0039
-7.97227 -38.9364
-6.96992 -39.0315
-5.96946 -39.0145
-4.9704 -38.9828
-3.96933 -39.0358
-2.97113 -38.9803
-1.96935 -39.0083
-0.971052 -38.9655
0.0278052 -39.0124
1.02689 -38.9977
2.02646 -39.0137
3.02591 -38.9914
4.02526 -39.011
5.02544 -38.9904
6.02526 -38.9903
7.02484 -39.0213
8.02336 -38.9765
9.02869 -39.0091
10.0274 -38.9999
11.0302 -39.0114
12.0282 -38.9802
13.0259 -39.038
14.0258 -38.9962
15.0244 -39.0095
16.027 -38.9838
17.0271 -38.9989
18.0268 -39.0167
19.0281 -38.9671
20.0279 -39.0075
21.0285 -39.0136
22.0287 -39.0065
23.0272 -38.9573
24.0252 -39.0247
25.0263 -38.9904
26.0267 -39.018
27.0252 -38.9605
28.0243 -38.9903
29.0235 -39.0099
30.0213 -38.989
31.0266 -39.0189
32.0305 -38.9894
33.0293 -39.0272
34.029 -39.0223
35.0295 -38.9592
36.0271 -39.0319
37.0271 -39.0003
38.0267 -39.0049
39.0264 -38.9808
40.0254 -39.0579
41.0206 -38.9617
42.0198 -39.0144
43.0242 -38.9895
44.023 -39.0014
45.0228 -39.0211
46.0222 -39.0063
47.0222 -38.9778
48.0234 -39.0376
49.0241 -38.9817
-50.0187 -37.992
-49.0198 -37.9784
-48.017 -38.0369
-47.0134 -37.9795
-46.0143 -38.0065
-45.0134 -37.9868
-44.0137 -37.9952
-43.0081 -37.969
-42.0083 -37.9969
-41.0096 -38.0117
-40.0099 -37.9735
-39.0098 -38.022
-38.0098 -37.9762
-37.0085 -38.0295
-36.0083 -37.9946
-35.0078 -37.9373
-34.0109 -38.0412
-33.0121 -37.979
-32.0113 -38.0068
-31.0117 -38.0197
-30.0114 -38.0034
-29.013 -37.9896
-28.0138 -38.0017
-27.0094 -38.0071
-26.008 -38.0088
-25.0079 -37.986
-24.0093 -37.9997
-23.0088 -37.9795
-22.0067 -37.9851
-21.0087 -38.0288
-20.011 -37.9841
-19.0118 -38.0126
-18.0116 -37.9911
-17.0123 -37.9911
-16.0121 -38.0014
-15.0131 -37.9871
-14.0124 -37.9963
-13.0105 -38
-12.0115 -37.997
-11.0117 -38.0064
-10.0093 -37.9882
-9.0081 -38.0038
-8.01049 -37.9349
-7.01038 -38.0321
-6.00826 -38.0137
-5.00929 -37.9817
-4.0094 -38.0353
-3.01024 -37.9813
-2.01076 -38.0083
-1.01068 -37.9658
-0.0124379 -38.0135
0.988381 -37.9957
1.99075 -38.012
2.99045 -37.9908
3.98913 -38.0108
4.9889 -37.9904
5.98849 -37.9907
6.98863 -38.0211
7.9893 -37.9764
8.98914 -38.0102
9.98892 -37.9999
10.9878 -38.0134
11.987 -37.9802
12.9861 -38.0372
13.9854 -37.9981
14.9845 -38.0114
15.9866 -37.9837
16.9864 -38
17.9864 -38.0183
18.9862 -37.9687
19.9863 -38.007
20.9873 -38.0123
21.9883 -38.0071
22.9863 -37.9549
23.9848 -38.0241
24.9837 -37.9917
25.9828 -38.0174
26.9826 -37.9609
27.9822 -37.9925
28.9838 -38.0091
29.985 -37.9897
30.9851 -38.02
31.9844 -37.9912
32.9891 -38.0261
33.9879 -38.0231
34.9891 -37.9603
35.9866 -38.0327
36.985 -38.0009
37.9879 -38.0058
38.9867 -37.9792
39.9854 -38.0599
40.9804 -37.9623
41.981 -38.0152
42.9821 -37.9899
43.9844 -38.0026
44.9846 -38.0207
45.9837 -38.0078
46.9852 -37.9783
47.9828 -38.0373
48.9797 -37.9832
-50.0084 -36.9905
-49.0059 -36.9796
-48.0055 -37.0339
-47.0067 -36.9796
-46.0065 -37.0065
-45.007 -36.9877
-44.005 -36.9947
-43.0063 -36.9705
-42.0057 -36.9967
-41.0068 -37.0126
-40.0081 -36.9741
-39.0077 -37.0172
-38.0071 -36.975
-37.0094 -37.0252
-36.0111 -36.992
-35.0125 -36.9375
-34.0136 -37.0411
-33.0155 -36.9792
-32.0156 -37.007
-31.0157 -37.0207
-30.0127 -37.0028
-29.0124 -36.9904
-28.0128 -37.0029
-27.0118 -37.0053
-26.0128 -37.0095
-25.0115 -36.9856
-24.0108 -36.9993
-23.0105 -36.9797
-22.0093 -36.9848
-21.0109 -37.029
-20.0121 -36.984
-19.0122 -37.0127
-18.0134 -36.992
-17.0134 -36.9891
-16.0085 -37.0011
-15.0066 -36.9875
-14.0047 -36.9966
-13.0032 -36.9998
-12.0032 -36.9973
-11.0036 -37.0054
-10.0049 -36.9886
-9.00471 -37.0037
-8.00734 -36.9339
-7.01215 -37.0326
-6.01315 -37.0121
-5.0154 -36.9813
-4.01867 -37.0344
-3.01984 -36.9807
-2.02026 -37.0044
-1.02259 -36.9606
-0.0179879 -37.01
0.98311 -36.9968
1.98567 -37.0128
2.9859 -36.9866
3.98486 -37.0109
4.98565 -36.9907
5.98578 -36.9919
6.98598 -37.021
7.98439 -36.9756
8.98485 -37.0104
9.98269 -36.9984
10.9818 -37.0143
11.9828 -36.9803
12.9809 -37.0372
13.9817 -36.9982
14.9814 -37.0125
15.9819 -36.9832
16.9822 -37.0006
17.9812 -37.017
18.9806 -36.9672
19.9786 -37.0038
20.9785 -37.0133
21.9802 -37.0073
22.9807 -36.9556
23.9782 -37.0246
24.9772 -36.9905
25.9777 -37.0177
26.9767 -36.9616
27.9772 -36.9907
28.977 -37.0092
29.9767 -36.9916
30.9765 -37.0205
31.9752 -36.9901
32.9768 -37.0246
33.9769 -37.0241
34.9777 -36.9609
35.9759 -37.0325
36.9763 -37.0018
37.9782 -37.0049
38.9807 -36.9807
39.9793 -37.0568
40.9767 -36.9637
41.9795 -37.0119
42.9814 -36.9905
43.9807 -37.0022
44.982 -37.0181
45.9809 -37.007
46.9827 -36.9786
47.9835 -37.0369
48.9831 -36.9848
-49.9908 -35.9892
-48.9921 -35.9796
-47.9934 -36.035
-46.9947 -35.9805
-45.9947 -36.0055
-44.9937 -35.9865
-43.9934 -35.9952
-42.9941 -35.9693
-41.9918 -35.9952
-40.9914 -36.0127
-39.9913 -35.9752
-38.9927 -36.0174
-37.9923 -35.9748
-36.994 -36.022
-35.9951 -35.993
-34.9927 -35.9377
-33.9967 -36.0423
-32.9989 -35.979
-31.9992 -36.0054
-30.9993 -36.0206
-29.9975 -36.0032
-28.9969 -35.9906
-27.9961 -36.0045
-26.9967 -36.0033
-25.9929 -36.0072
-24.9947 -35.9864
-23.9939 -36.0002
-22.9945 -35.9801
-21.9942 -35.9847
-20.9903 -36.0292
-19.9857 -35.984
-18.9816 -36.0088
-17.9823 -35.9928
-16.9823 -35.99
-15.9836 -36.0001
-14.9843 -35.988
-13.984 -35.9973
-12.9824 -35.9969
-11.9824 -35.9973
-10.981 -36.004
-9.97842 -35.9888
-8.97667 -36.003
-7.97654 -35.9332
-6.98242 -36.033
-5.97544 -36.0104
-4.97408 -35.9807
-3.96938 -36.0346
-2.96656 -35.9825
-1.9649 -36.0058
-0.964691 -35.9614
0.0338924 -36.0096
1.03507 -35.9974
2.03395 -36.0107
3.03473 -35.9875
4.03388 -36.0127
5.03463 -35.9915
6.03455 -35.9941
7.03336 -36.0222
8.03124 -35.9777
9.03025 -36.0113
10.0302 -35.9992
11.0301 -36.0151
12.0286 -35.9774
13.0269 -36.0382
14.0279 -35.9908
15.0273 -36.0144
16.0267 -35.9803
17.0273 -36.0022
18.0285 -36.0154
19.0274 -35.9686
20.0261 -36.0026
21.0253 -36.0153
22.026 -36.0087
23.0231 -35.9569
24.0223 -36.0257
25.0218 -35.9924
26.0256 -36.0165
27.0235 -35.9627
28.022 -35.992
29.0204 -36.0096
30.0205 -35.9899
31.0196 -36.0173
32.0201 -35.991
33.0194 -36.0238
34.0198 -36.0234
35.0193 -35.9626
36.0178 -36.0275
37.0169 -36.003
38.0163 -36.0018
39.0177 -35.9808
40.0172 -36.0549
41.0131 -35.9643
42.0111 -36.0123
43.0116 -35.9902
44.012 -36.0014
45.0124 -36.0186
46.0134 -36.0085
47.0145 -35.979
48.0126 -36.0382
49.0094 -35.9836
-49.9832 -34.9901
-48.9817 -34.9798
-47.9816 -35.036
-46.9821 -34.9816
-45.9824 -35.0049
-44.9831 -34.9864
-43.9826 -34.9934
-42.9837 -34.9703
-41.9822 -34.9958
-40.9825 -35.0137
-39.9838 -34.9763
-38.9828 -35.0171
-37.9836 -34.9752
-36.9851 -35.0221
-35.9816 -34.9938
-34.9831 -34.9388
-33.9843 -35.0431
-32.9863 -34.9794
-31.9859 -35.0053
-30.986 -35.0205
-29.9864 -35.0033
-28.9869 -34.9916
-27.9874 -35.0055
-26.9857 -35.0025
-25.9859 -35.0073
-24.9851 -34.9864
-23.985 -35.0003
-22.9854 -34.9708
-21.9866 -34.9851
-20.9803 -35.0284
-19.9797 -34.9832
-18.9808 -34.9986
-17.979 -34.9938
-16.9796 -34.9862
-15.9739 -34.998
-14.9748 -34.9883
-13.9753 -34.9975
-12.976 -34.9933
-11.9716 -34.9976
-10.9724 -35.0047
-9.97243 -34.9889
-8.97046 -35.0026
-7.9735 -34.931
-6.97803 -35.033
-5.97778 -35.0084
-4.97602 -34.9803
-3.9785 -35.0351
-2.97911 -34.9825
-1.9803 -35.0073
-0.977273 -34.9614
0.0250931 -35.0056
1.02541 -34.9957
2.02554 -35.01
3.02376 -34.9872
4.02371 -35.0121
5.02309 -34.9922
6.02424 -34.9913
7.02568 -35.0222
8.02324 -34.978
9.0232 -35.0109
10.0245 -34.9985
11.0233 -35.014
12.021 -34.9766
13.0201 -35.0382
14.0175 -34.99
15.0169 -35.015
16.0158 -34.9797
17.0146 -35.0028
18.0151 -35.0153
19.0142 -34.9681
20.0144 -34.9998
21.0145 -35.0161
22.014 -35.0068
23.0186 -34.9536
24.0169 -35.0247
25.0157 -34.9921
26.016 -35.0154
27.0149 -34.9626
28.0204 -34.9923
29.0194 -35.0114
30.0196 -34.9909
31.0186 -35.0178
32.0181 -34.9899
33.0179 -35.0218
34.0182 -35.0171
35.0155 -34.9629
36.0154 -35.0286
37.0153 -35.0029
38.0163 -35.0007
39.0166 -34.9805
40.0139 -35.053
41.0106 -34.9641
42.0102 -35.0104
43.0129 -34.9909
44.0172 -35.0032
45.0174 -35.0174
46.0163 -35.0091
47.0184 -34.9768
48.018 -35.0387
49.0167 -34.9837
-50.0415 -33.9924
-49.0419 -33.9829
-48.0443 -34.0374
-47.0445 -33.9832
-46.0451 -34.0057
-45.0456 -33.9897
-44.0447 -33.9941
-43.0447 -33.9716
-42.0465 -33.9988
-41.0458 -34.0146
-40.0471 -33.9786
-39.0484 -34.0177
-38.0489 -33.9761
-37.0506 -34.0169
-36.0512 -33.9966
-35.053 -33.9407
-34.0586 -34.0437
-33.0601 -33.9835
-32.0602 -34.0099
-31.0593 -34.0222
-30.0584 -34.0033
-29.059 -33.9943
-28.0552 -34.01
-27.0559 -34.0055
-26.0559 -34.0097
-25.0557 -33.9875
-24.0554 -34.0041
-23.0566 -33.972
-22.0568 -33.982
-21.0584 -34.0318
-20.0558 -33.9866
-19.0551 -34.0007
-18.0548 -33.9975
-17.0561 -33.9902
-16.0557 -34.0023
-15.0545 -33.9903
-14.0548 -33.9965
-13.0538 -33.9959
-12.0534 -33.9969
-11.0551 -34.0091
-10.0557 -33.9927
-9.05561 -34.0056
-8.05862 -33.9337
-7.06328 -34.0338
-6.06439 -34.0117
-5.06514 -33.9837
-4.06244 -34.0358
-3.0599 -33.9857
-2.06149 -34.0097
-1.06242 -33.9642
-0.0649151 -34.0101
0.93464 -33.9947
1.93623 -34.0146
2.93653 -33.9857
3.94429 -34.0124
4.95023 -33.9942
5.94911 -33.9918
6.95143 -34.0244
7.95218 -33.9803
8.95064 -34.0129
9.95076 -34.0009
10.9514 -34.0177
11.9502 -33.9784
12.9509 -34.0351
13.9501 -33.9929
14.9504 -34.017
15.9537 -33.9807
16.9554 -34.0013
17.9572 -34.0153
18.9568 -33.9702
19.9589 -34.001
20.9581 -34.0182
21.9594 -34.0096
22.9602 -33.9542
23.9578 -34.0217
24.9572 -33.9941
25.9577 -34.0154
26.9553 -33.9644
27.9564 -33.9939
28.9564 -34.0136
29.9557 -33.9915
30.9548 -34.02
31.9552 -33.988
32.9604 -34.0245
33.9591 -34.019
34.9609 -33.9651
35.9589 -34.0252
36.9587 -34.0048
37.9599 -34.0036
38.9589 -33.9828
39.9567 -34.0554
40.9525 -33.9656
41.9509 -34.0108
42.9541 -33.9905
43.9576 -34.0051
44.9601 -34.0206
45.9592 -34.0108
46.959 -33.9761
47.9572 -34.0414
48.9576 -33.9864
-49.9962 -32.9937
-48.9951 -32.9853
-47.9965 -33.0365
-46.9974 -32.9841
-45.9972 -33.0075
-44.9966 -32.9912
-43.9972 -32.9953
-42.9984 -32.9742
-41.9948 -32.9997
-40.9954 -33.0153
-39.9966 -32.98
-38.9974 -33.012
-37.9887 -32.9777
-36.9904 -33.0173
-35.9904 -32.9963
-34.9924 -32.942
-33.9985 -33.0444