ITEM: TIMESTEP
5000
ITEM: NUMBER OF ATOMS
10000
ITEM: BOX BOUNDS pp pp pp
-5.0000000000000000e+01 5.0000000000000000e+01
-5.0000000000000000e+01 5.0000000000000000e+01
-1.0000000000000000e+01 1.0000000000000000e+01
ITEM: ATOMS x y
-49.6451 -49.5187
-48.4893 -49.6111
-47.3928 -49.7254
-46.2976 -49.2777
-45.4645 -49.8329
-44.3479 -49.9189
-43.1998 -49.985
-42.119 49.9358
-41.0756 49.8864
-40.0712 49.7943
-38.97 -49.7126
-38.1013 49.7511
-37.1011 -49.7929
-36.293 49.5869
-35.305 -49.8859
-34.402 -49.3905
-33.5673 -49.9605
-32.6405 -49.5489
-31.7444 49.7813
-30.8114 49.3613
-29.8565 49.7565
-28.7823 -49.8023
-27.9387 49.5503
-26.8802 49.3835
-25.1568 49.9247
-24.1695 49.7068
-23.1757 49.3716
-22.3935 -49.7312
-21.7423 49.5153
-20.7213 49.5354
-19.783 49.9083
-18.7878 -49.8843
-17.6118 -49.6598
-16.5474 -49.4945
-15.532 -49.3302
-14.5163 -49.2329
-13.4767 -49.2334
-12.2385 -48.8311
-11.5082 -49.6276
-10.6283 49.7177
-9.66797 -49.8135
-8.86219 49.5248
-7.82467 49.9481
-6.95321 49.2769
-5.99032 49.9038
-5.05667 -49.7445
-4.1704 49.6076
-3.21613 -49.8508
-2.34811 49.5696
-0.460876 -49.7613
0.48768 49.9186
1.38646 -49.413
2.33506 -49.7783
3.2998 -49.0805
4.18032 -49.5862
5.1774 -48.9964
6.52162 -49.607
7.4279 49.9634
8.37859 -49.4962
9.29125 49.8696
10.1252 -49.5774
11.4246 49.9529
12.3796 -49.65
13.2923 49.7692
14.2007 -49.7941
15.064 49.562
15.9928 49.9387
17.0393 49.3552
17.9654 49.7271
18.9237 -49.839
19.8056 49.5867
20.6666 49.0683
21.7149 49.4102
22.5498 49.9863
23.6602 49.436
24.5289 49.9334
25.5824 49.5558
26.4035 -49.8793
27.4549 49.6543
28.7536 -49.9835
29.7822 -49.9441
30.905 -49.9648
31.9234 -49.9211
32.9365 -49.8675
33.9391 -49.8611
34.862 49.6623
35.8553 49.57
36.8564 49.612
37.86 49.6399
38.9746 49.7422
40.081 49.5062
40.9381 -49.9607
41.818 49.5325
42.8467 49.9119
43.8442 49.576
44.8082 49.9714
45.8234 -49.6506
47.2597 -49.6419
48.2999 -49.611
49.3597 -49.5988
-48.989 -48.6533
-47.9856 -48.6882
-46.9744 -48.4559
-45.745 -48.4371
-44.851 -49.0008
-44.6206 -48.0023
-43.7026 -49.1202
-42.5693 -49.1636
-41.5712 -49.2239
-39.837 -49.2164
-38.9074 -48.6877
-38.0211 -49.2408
-37.0923 -48.7837
-36.2017 -49.3469
-35.2586 -48.865
-34.2989 -48.2535
-33.4174 -48.8169
-32.446 -48.5073
-31.6049 -49.1989
-30.6951 -49.6178
-29.7124 -49.215
-28.5281 -48.6732
-27.2637 -49.649
-26.249 -49.7928
-25.4894 -49.0061
-24.4588 -49.2879
-23.476 -49.5069
-22.7751 -48.7902
-21.5697 -49.1418
-20.5071 -49.4041
-19.4774 -49.1235
-18.2892 -48.9189
-17.2281 -48.6958
-16.2382 -48.4963
-15.2295 -48.3692
-14.1681 -48.2759
-13.1269 -48.2381
-11.9954 -47.8519
-11.2513 -48.5405
-10.5535 -49.2704
-9.5056 -48.7928
-8.71527 -49.4395
-7.80142 -48.9379
-6.89654 -49.6417
-5.80492 -49.0585
-4.88854 -48.6462
-4.12185 -49.3347
-3.17608 -48.8114
-2.2766 -49.3653
-0.966885 -48.8532
0.346477 -49.0894
1.12979 -48.343
2.16183 -48.7852
2.91133 -48.1256
4.15357 -48.4871
5.60581 -48.0676
6.48546 -48.5993
7.40208 -49.0292
8.32306 -48.4657
9.28106 -49.0086
10.1656 -48.4739
11.0253 -49.1201
11.9856 -48.6989
13.3829 -49.1563
14.2913 -48.7124
15.1431 -49.3363
16.0653 -48.932
16.8932 -49.5071
17.8638 -49.2281
18.8547 -48.8095
19.907 -49.4005
20.7574 -49.9367
21.6336 -49.4457
22.5534 -49.0055
23.4835 -49.5529
24.4895 -49.0523
25.4204 -49.4526
26.3991 -48.8695
27.8647 -49.4261
29.2377 -49.0337
30.3936 -48.9608
31.3955 -48.9829
32.4303 -49.0034
33.4438 -48.9177
34.456 -48.9684
35.4209 -49.2433
36.4089 -49.4017
37.3993 -49.1089
38.358 -49.4598
39.1971 -48.9011
40.0721 -49.4184
40.9988 -48.9143
42.0547 -49.4782
42.9357 -48.948
43.8452 -49.4222
44.787 -49.024
46.576 -48.9094
47.6405 -48.7123
48.7765 -48.7127
49.8193 -48.6585
-49.7713 -47.7318
-48.6861 -47.684
-47.6136 -47.685
-46.4367 -47.6059
-45.4379 -47.414
-44.5059 -47.0055
-43.5998 -48.1127
-42.5639 -47.7213
-41.6572 -48.2198
-40.7084 -48.707
-39.8017 -48.1745
-38.0547 -48.1286
-37.0692 -47.7244
-36.1195 -48.3247
-35.2383 -47.7697
-34.3909 -47.2381
-33.3144 -47.7565
-32.1695 -47.3534
-31.4426 -48.1311
-30.5344 -48.5832
-29.4183 -48.202
-28.7825 -47.4021
-27.5182 -48.5645
-26.4717 -48.8241
-25.7924 -48.0567
-24.7632 -48.2983
-23.7808 -48.5172
-23.0302 -47.8154
-22.0007 -48.0336
-20.982 -48.265
-19.9829 -48.2417
-18.9527 -48.0782
-17.9009 -47.9543
-16.9346 -47.6988
-15.8951 -47.531
-14.8437 -47.3862
-13.8381 -47.3083
-12.7996 -47.2624
-11.0526 -47.5209
-10.2841 -48.1739
-9.4847 -47.4236
-8.70934 -48.1293
-7.69575 -47.8655
-6.84487 -48.5659
-5.80878 -48.0531
-4.82892 -47.5796
-3.97862 -48.2037
-3.01601 -47.8187
-2.10569 -48.3837
-1.04148 -47.7554
-0.137518 -48.1815
0.94317 -47.2909
1.94388 -47.768
3.66746 -47.3744
4.70781 -47.6122
5.60407 -47.0312
6.49033 -47.5454
7.39966 -48.0077
8.42624 -47.4263
9.29612 -47.9492
10.2071 -47.476
11.1657 -48.102
12.1185 -47.6661
12.9042 -48.2782
13.8124 -47.781
15.2372 -48.2624
16.1754 -47.8638
16.9795 -48.4575
17.979 -48.1757
18.9571 -47.732
19.7773 -48.3201
20.7333 -48.8287
21.6424 -48.3664
22.695 -47.9218
23.4949 -48.519
24.405 -47.9121
25.3613 -48.4273
26.3524 -47.8753
27.3565 -48.43
28.5227 -48.2948
29.7335 -48.1402
30.8526 -48.0561
31.9905 -48.1063
33.0501 -47.9976
34.0475 -48.0532
35.1107 -48.1541
36.1775 -48.3825
37.1593 -48.0978
38.2297 -48.4655
39.0853 -47.8565
40.0758 -48.3755
40.9823 -47.9056
41.8808 -48.4054
42.9105 -47.865
43.7878 -48.3472
44.7085 -47.8915
45.6302 -48.4276
46.8139 -47.8083
48.192 -47.8766
49.2088 -47.7846
49.7019 -46.826
-49.2615 -46.7875
-48.2595 -46.7504
-47.2139 -46.7658
-45.9378 -46.4515
-44.9669 -46.1153
-43.4999 -47.0883
-42.5498 -46.6987
-41.5794 -47.2019
-40.6786 -47.6837
-39.8095 -47.1244
-38.9493 -47.6414
-38.0141 -47.0698
-36.1279 -47.2581
-35.2616 -46.7364
-34.3101 -46.2404
-33.4238 -46.7054
-32.4923 -46.3407
-31.0159 -47.228
-30.0041 -47.3076
-29.3387 -46.5334
-28.2096 -46.4913
-27.7268 -47.4621
-26.79 -47.8698
-26.2011 -46.9784
-25.198 -47.2477
-24.0503 -47.5466
-23.3666 -46.7954
-22.2649 -46.9908
-20.9858 -47.1392
-19.8157 -47.2035
-18.6657 -47.1262
-17.5475 -46.8985
-16.5441 -46.6981
-15.4843 -46.6098
-14.4088 -46.4763
-13.3925 -46.406
-12.3316 -46.3538
-11.2639 -46.5412
-10.1955 -46.6074
-9.20565 -46.3929
-8.50419 -47.1216
-7.52038 -46.8735
-6.71136 -47.5535
-5.84153 -47.04
-4.71501 -46.584
-3.90001 -47.1874
-2.97649 -46.798
-1.96503 -47.2551
-1.01036 -46.6938
-0.0409163 -47.147
1.78653 -46.7221
2.70802 -47.1065
3.71836 -46.3753
4.69914 -46.5764
5.70873 -46.0081
6.64292 -46.4627
7.51078 -46.9794
8.4443 -46.429
9.32927 -46.8996
10.2593 -46.4742
11.142 -47.0566
12.0741 -46.6637
13.0199 -47.1474
13.9452 -46.7592
14.7532 -47.3524
15.7456 -46.907
16.8027 -47.0681
17.8351 -47.004
18.9691 -46.7289
19.8459 -47.2162
20.713 -47.7796
21.6557 -47.3303
22.6 -46.9017
23.5406 -47.3437
24.4698 -46.8402
25.3945 -47.412
26.3132 -46.8778
27.2525 -47.4022
28.2517 -47.3071
29.3408 -47.2205
30.3637 -47.1763
31.4237 -47.2134
32.4477 -47.1845
33.6946 -47.0826
34.6975 -47.1666
35.8932 -47.4166
37.1682 -47.0788
38.1701 -47.4418
39.088 -46.83
40.0904 -47.3729
40.9071 -46.7954
41.8198 -47.3575
42.7526 -46.8479
43.7641 -47.3424
44.6521 -46.8571
45.5798 -47.4071
46.5736 -46.8367
47.6142 -47.0283
48.6023 -46.8819
-49.8084 -45.9462
-48.8072 -45.7799
-47.7401 -45.8432
-46.709 -45.7018
-45.7389 -45.449
-44.5419 -45.1047
-43.9529 -45.9768
-42.6392 -45.7029
-41.6384 -46.1672
-40.7019 -46.6372
-39.8088 -46.0818
-38.9114 -46.5177
-38.0217 -46.0143
-37.0468 -46.7243
-36.139 -46.201
-35.2361 -45.6828
-33.3805 -45.6624
-32.0234 -45.4267
-31.4618 -46.2859
-30.3879 -46.3336
-29.7203 -45.4666
-28.7049 -45.481
-27.6656 -45.609
-27.2039 -46.5156
-26.6109 -45.7033
-25.5428 -45.986
-24.4467 -46.491
-23.7034 -45.8198
-22.5103 -46.0126
-21.4833 -46.2644
-20.484 -46.2164
-19.4612 -46.1509
-18.2262 -46.1119
-17.1347 -45.8919
-16.0803 -45.7891
-15.0144 -45.6785
-14.0271 -45.5274
-12.9411 -45.4991
-11.9383 -45.4315
-10.8567 -45.5822
-9.85972 -45.6166
-8.44432 -45.6635
-7.38705 -45.7573
-6.56985 -46.3405
-5.5995 -46.0511
-4.78038 -45.4169
-3.75562 -46.1418
-2.95418 -45.5402
-1.95777 -46.2553
-0.177289 -46.0814
0.852912 -46.281
1.71366 -45.6967
2.70018 -46.0726
3.67228 -45.3616
4.69092 -45.4702
5.63849 -44.9486
6.54786 -45.4615
7.48224 -45.861
8.45058 -45.3906
9.31688 -45.8849
10.2959 -45.4688
11.1848 -46.011
12.1 -45.4688
12.9864 -46.0782
14.0026 -45.7496
14.9334 -46.2533
16.049 -45.8066
17.2011 -46.1158
18.2025 -46.0523
19.0809 -45.5263
19.884 -46.1653
20.7725 -46.7699
21.742 -46.2691
22.5891 -45.7316
23.4491 -46.3543
24.4817 -45.8354
25.3768 -46.3449
26.2557 -45.8322
27.5187 -46.3618
28.6471 -46.373
29.8564 -46.3111
30.9034 -46.2858
31.966 -46.3111
33.0091 -46.3425
34.3377 -46.2113
35.363 -46.396
36.3641 -46.4412
37.292 -45.9323
38.1817 -46.4026
39.0798 -45.8359
40.0006 -46.2971
40.8849 -45.7568
41.8451 -46.3574
42.69 -45.7957
43.6605 -46.3435
44.634 -45.7988
45.5915 -46.3766
46.5083 -45.8338
47.9334 -46.048
49.1134 -46.0028
49.4219 -45.0063
-49.5389 -44.9583
-48.5172 -44.8232
-47.4341 -44.895
-46.4683 -44.6363
-45.4236 -44.4901
-43.529 -45.0488
-42.6224 -44.5901
-41.6816 -45.1208
-40.7371 -45.6349
-39.8236 -45.0792
-38.9103 -45.5156
-37.9412 -44.9644
-37.062 -45.657
-36.1326 -45.2005
-35.2994 -44.5578
-34.2829 -45.0294
-33.4076 -44.4789
-32.2977 -44.4632
-30.8135 -45.4209
-30.2792 -44.5424
-29.2202 -44.3802
-28.2244 -44.5086
-27.2197 -44.6914
-26.1782 -44.7793
-25.1643 -44.9382
-24.1236 -44.8447
-23.1071 -45.0232
-22.0087 -45.1053
-20.9496 -45.2452
-19.9116 -45.2398
-18.8289 -45.2768
-17.8164 -45.1559
-16.7004 -44.9823
-15.6144 -44.8549
-14.6259 -44.6803
-13.5693 -44.6204
-12.5266 -44.5501
-11.4126 -44.5556
-10.3576 -44.6682
-9.17474 -44.7497
-8.17283 -44.6732
-7.05436 -44.5248
-6.47362 -45.3331
-5.80573 -44.5605
-4.79713 -44.4133
-3.85484 -45.0418
-1.9934 -45.0927
-1.12167 -45.6136
-0.288963 -44.9969
0.696739 -45.2351
1.67764 -44.6709
2.6595 -45.0438
3.69708 -44.3626
4.73648 -44.4431
5.60622 -43.8778
6.5111 -44.4311
7.42075 -44.867
8.28322 -44.1971
9.3476 -44.8795
10.2662 -44.4078
11.1814 -44.9616
12.2093 -44.4578
13.0461 -45.0821
14.1026 -44.7413
15.0428 -45.2627
15.927 -44.7915
16.9673 -45.1171
18.0006 -44.8644
18.9928 -44.4652
19.9567 -45.0477
20.8398 -45.754
21.7195 -45.2251
22.568 -44.6623
23.5504 -45.2789
24.5152 -44.8101
25.3922 -45.3266
26.3299 -44.8193
27.1784 -45.4027
28.1882 -45.4207
29.2229 -45.3979
30.3556 -45.4252
31.4364 -45.4302
32.661 -45.3687
33.6743 -45.4651
35.2574 -45.3952
36.3409 -45.4325
37.2349 -44.8621
38.1579 -45.3948
39.0938 -44.8055
39.991 -45.2654
40.9359 -44.742
41.7907 -45.2718
42.7546 -44.7748
43.7175 -45.3161
44.6298 -44.7963
45.5116 -45.3168
46.3916 -44.82
47.3243 -45.2389
48.415 -45.1286
49.7922 -44.064
-49.1925 -43.9432
-48.1464 -43.8963
-47.1501 -43.7987
-46.0461 -43.6925
-44.6531 -43.6537
-43.7079 -44.01
-42.679 -43.5713
-41.6597 -44.0482
-40.8209 -44.6169
-39.7785 -44.0012
-38.8517 -44.5191
-38.0209 -43.9601
-36.9841 -44.6642
-36.1595 -44.0512
-35.2151 -43.5317
-34.3424 -44.0258
-32.8584 -43.6204
-31.8646 -43.5442
-31.305 -44.549
-30.8351 -43.6333
-29.8408 -43.5544
-28.7153 -43.494
-27.6931 -43.663
-26.6877 -43.7706
-25.6827 -43.8466
-24.6333 -43.8644
-23.5804 -43.9474
-22.5727 -44.1113
-21.5135 -44.2053
-20.5135 -44.185
-19.5095 -44.282
-18.4149 -44.3548
-17.3762 -44.2239
-16.2139 -44.051
-15.191 -43.8537
-14.152 -43.706
-13.1503 -43.6779
-11.9823 -43.6838
-10.867 -43.6987
-9.86152 -43.7127
-8.83351 -43.7008
-7.6969 -43.7495
-6.56431 -43.6392
-5.41362 -43.5822
-3.87982 -43.9588
-2.95622 -44.5353
-2.01766 -43.9458
-1.12823 -44.4323
-0.189837 -43.7894
0.765782 -44.235
1.59536 -43.6727
2.63271 -43.9709
3.41803 -43.3
4.41811 -43.4938
5.24466 -42.9335
6.25376 -43.0999
7.33695 -43.8696
8.3953 -43.1333
9.23719 -43.8742
10.2489 -43.3952
11.2206 -43.9291
12.2053 -43.4426
13.201 -44.0164
14.2144 -43.6202
15.019 -44.2612
16.1502 -43.7582
17.2114 -44.0891
18.1885 -43.7705
19.078 -43.3074
19.8867 -43.9276
20.8658 -44.5861
21.7269 -44.0695
22.6382 -43.6427
23.5992 -44.2819
24.4976 -43.7976
25.465 -44.2769
26.4484 -43.8201
27.6668 -44.3642
28.7278 -44.4527
29.8586 -44.5321
30.9075 -44.5546
32.0204 -44.5471
33.2629 -44.5255
34.5059 -44.6435
34.9885 -43.7624
36.1483 -44.3713
37.1883 -43.8598
38.088 -44.3232
38.9903 -43.7957
39.9622 -44.2239
40.8471 -43.7246
41.8298 -44.2423
42.7236 -43.7751
43.705 -44.3101
44.5452 -43.7252
45.5269 -44.3009
46.4714 -43.806
47.6724 -44.2474
48.7743 -44.1879
-49.7724 -43.1292
-48.7986 -42.7947
-47.798 -42.9094
-46.6546 -42.8815
-45.4986 -42.7845
-44.4946 -42.6155
-43.5267 -42.955
-42.6198 -42.5033
-41.7361 -43.0265
-40.7407 -43.5874
-39.8374 -42.9895
-38.8951 -43.4569
-37.9605 -42.9173
-37.0842 -43.5925
-36.1214 -43.0453
-35.2826 -42.4763
-34.3829 -42.9626
-33.4088 -42.6977
-32.3775 -42.6855
-31.3481 -42.6355
-30.3109 -42.6672
-29.3002 -42.6804
-28.2202 -42.6282
-27.219 -42.7758
-26.2124 -42.8516
-25.1844 -42.9405
-24.1478 -42.996
-23.061 -43.0877
-22.0009 -43.2525
-20.9806 -43.2561
-19.9726 -43.3378
-18.9128 -43.4051
-17.9033 -43.3402
-16.9097 -43.2894
-15.8616 -42.9677
-14.7726 -42.9247
-13.7047 -42.7663
-12.5864 -42.7814
-11.5318 -42.7788
-10.5247 -42.7155
-9.36399 -42.7456
-8.1827 -42.8722
-7.18135 -42.834
-6.07116 -42.7292
-4.97214 -42.6396
-3.98777 -42.9607
-2.98557 -43.5026
-2.04288 -42.9365
-1.1377 -43.3601
-0.230471 -42.7632
0.735852 -43.1066
1.55755 -42.5056
2.49186 -42.8773
3.29255 -42.2438
4.33826 -42.418
5.5308 -41.9628
6.6601 -42.0366
7.29 -42.8625
8.72061 -42.0984
9.43727 -42.8116
10.3514 -42.3814
11.2232 -42.8971
12.4614 -42.4731
13.3702 -43.0142
14.4658 -42.5843
15.3287 -43.1345
16.2593 -42.6859
17.3327 -43.0897
18.253 -42.6657
19.2221 -42.2503
20.0419 -42.8653
20.8387 -43.5599
21.812 -43.0446
22.8496 -42.6638
23.6777 -43.2231
24.5989 -42.7931
25.5955 -43.2699
26.4738 -42.7842
27.3465 -43.3707
28.3381 -43.5212
29.3604 -43.6683
30.3931 -43.6216
31.3934 -43.6792
32.4992 -43.6733
33.956 -43.7922
35.2223 -42.6362
36.0095 -43.2672
36.9534 -42.8426
38.0569 -43.29
39.0572 -42.5692
39.9166 -43.1643
40.7935 -42.6364
41.7863 -43.2397
42.7554 -42.756
43.6372 -43.2847
44.6125 -42.7179
45.4461 -43.2774
46.4116 -42.7555
47.3277 -43.2621
48.3752 -43.2019
49.2745 -42.767
-49.8331 -42.0317
-48.8247 -41.7119
-47.3736 -41.9602
-46.2604 -41.9512
-45.1397 -41.7973
-43.9544 -41.7432
-42.8955 -41.467
-41.7903 -41.9109
-40.9018 -42.4686
-39.9095 -41.9902
-38.9639 -42.3882
-38.0566 -41.8774
-37.0358 -42.4851
-36.2692 -41.8336
-35.4208 -41.2741
-34.3591 -41.9439
-33.6632 -41.1924
-32.8412 -41.7954
-31.8394 -41.7126
-30.8387 -41.7602
-29.8337 -41.758
-28.8191 -41.7537
-27.8246 -41.7126
-26.8192 -41.8201
-25.8126 -41.8904
-24.6745 -42.0611
-23.6447 -42.0898
-22.538 -42.2316
-21.5314 -42.2672
-20.5215 -42.3488
-19.4452 -42.4186
-18.4219 -42.4008
-17.3617 -42.3978
-16.4731 -41.8505
-15.3613 -42.0711
-14.3691 -41.9775
-13.3945 -41.7644
-12.1261 -41.8757
-11.054 -41.8498
-9.98857 -41.838
-8.82262 -41.8565
-7.65205 -41.9057
-6.65296 -41.8746
-5.63292 -41.8104
-4.08409 -41.8765
-3.08139 -42.4704
-2.16706 -41.9256
-1.13271 -42.3108
-0.266802 -41.5804
0.69667 -42.0015
1.44005 -41.3311
2.34241 -41.7893
3.16415 -41.2041
4.18415 -41.3534
5.16254 -41.0138
6.19146 -40.9713
7.72045 -41.9439
8.48259 -41.085
9.63418 -41.6745
10.6001 -41.3478
11.4531 -41.9179
12.6166 -41.4649
13.5202 -42
14.5312 -41.4396
15.3178 -42.0584
16.2655 -41.548
17.2008 -42.0696
18.1899 -41.6721
19.1842 -41.2315
20.1424 -41.7343
20.9762 -42.4959
22.0096 -42.0575
22.9669 -41.5563
23.7624 -42.2092
24.7286 -41.745
25.6038 -42.2435
26.8504 -41.6954
27.8703 -42.4665
29.2029 -42.66
30.0715 -41.9479
30.8592 -42.6724
31.8581 -42.7939
33.2611 -43.0223
34.2058 -42.6318
35.3007 -41.6198
36.1597 -42.222
37.1889 -41.7741
38.1144 -42.1833
39.0899 -41.5447
39.9504 -42.0991
40.899 -41.644
41.831 -42.213
42.741 -41.7342
43.6144 -42.2248
44.5581 -41.7195
45.5463 -42.2581
46.4559 -41.6789
47.3092 -42.2511
48.2764 -41.9956
49.2422 -41.4933
-49.6566 -41.0088
-47.9088 -41.1151
-46.8065 -40.859
-45.8136 -41.0257
-44.7391 -40.8627
-43.7207 -40.7646
-42.723 -40.483
-41.8016 -40.8964
-40.822 -41.4639
-39.9056 -40.8939
-38.9777 -41.384
-38.1112 -40.8788
-37.1957 -41.3582
-36.3414 -40.7973
-35.4193 -40.2075
-34.5548 -40.7472
-33.7582 -40.1453
-32.3934 -40.8486
-31.3421 -40.8316
-30.3324 -40.7863
-29.3327 -40.8525
-28.2915 -40.7441
-27.2619 -40.8281
-26.2753 -40.9771
-25.2047 -41.0929
-24.1642 -41.1878
-23.1181 -41.174
-22.1326 -41.3139
-21.0299 -41.3949
-19.9661 -41.3965
-18.9281 -41.4563
-17.8735 -41.4926
-17.1729 -40.7416
-16.162 -40.8489
-15.1533 -41.0877
-14.0513 -41.0092
-12.7272 -41.0148
-11.6942 -40.9517
-10.5335 -40.9808
-9.4995 -40.9652
-8.25574 -40.9874
-7.23476 -40.9917
-6.22138 -40.946
-5.20778 -40.9049
-4.0808 -40.8629
-3.15084 -41.4508
-2.25989 -40.8155
-1.23436 -41.2886
-0.440323 -40.5978
0.501427 -40.9368
1.28704 -40.3202
2.41749 -40.4451
3.74391 -40.3371
4.7343 -40.0735
5.7365 -40.023
6.78585 -40.1282
7.19366 -41.0754
8.95242 -40.2023
9.83072 -40.6731
10.7818 -40.3231
11.665 -40.944
12.6188 -40.403
13.4796 -40.9527
14.4468 -40.4157
15.4406 -40.9726
16.4373 -40.4963
17.3158 -41.0696
18.2569 -40.5835
19.1392 -40.1094
20.027 -40.6967
21.1368 -41.4416
22.0516 -41.0217
23.048 -40.5041
23.8961 -41.1824
24.8514 -40.7441
25.8182 -41.2644
26.7232 -40.6996
27.9987 -41.3232
28.9539 -41.6854
29.8911 -40.8437
30.8296 -41.2684
31.6961 -41.803
32.6449 -42.1719
33.547 -41.7384
35.3057 -40.6124
36.3547 -41.2063
37.2637 -40.7087
38.1756 -41.1362
39.1109 -40.515
39.9978 -41.064
40.8753 -40.5475
41.859 -41.1992
42.7426 -40.6673
43.6425 -41.1823
44.5242 -40.7214
45.5071 -41.1991
46.5333 -40.6838
47.4012 -41.2525
48.3209 -40.8377
49.4638 -40.4703
-49.6372 -39.9975
-48.7512 -40.5511
-47.8768 -40.0717
-46.7541 -39.8335
-45.7215 -39.9911
-44.4334 -39.8909
-43.4356 -39.7679
-42.0257 -39.7418
-40.8481 -40.4264
-39.9158 -39.8652
-39.0217 -40.3527
-38.1505 -39.8078
-37.2899 -40.315
-36.3418 -39.7967
-35.5238 -39.1823
-34.5825 -39.5177
-33.5342 -39.1538
-32.794 -39.8428
-31.7828 -39.8367
-30.7615 -39.8809
-29.7459 -39.8266
-28.7449 -39.8147
-27.7307 -39.8639
-26.7179 -39.9936
-25.6775 -40.129
-24.6714 -40.1475
-23.6481 -40.2721
-22.5364 -40.3417
-21.4971 -40.459
-20.4352 -40.4875
-19.367 -40.5624
-18.349 -40.6108
-17.7714 -39.7918
-16.7338 -39.8314
-15.6344 -39.8751
-14.5646 -40.1152
-13.327 -40.1893
-12.2109 -40.0906
-11.071 -40.1136
-10.0305 -40.0897
-8.90213 -40.0541
-7.89571 -40.022
-6.8256 -40.0753
-5.77039 -40.0416
-4.61096 -39.9627
-3.1872 -40.3789
-2.39539 -39.7634
-1.41851 -40.1979
-0.639571 -39.5696
0.327513 -39.8757
1.12673 -39.2621
2.13376 -39.3943
3.12376 -39.5532
4.04957 -39.1677
5.27105 -39.1286
6.30593 -39.1979
7.83139 -40.225
8.38698 -39.3578
9.80608 -39.6423
10.792 -39.31
11.7648 -39.8781
12.6703 -39.3797
13.5524 -39.8986
14.4349 -39.4106
15.4098 -39.9369
16.3899 -39.4356
17.4099 -40.0056
18.2755 -39.4954
19.2505 -39.0971
20.1988 -39.6825
21.1324 -40.3995
22.1212 -39.9144
23.097 -39.5042
24.0146 -40.1268
24.9348 -39.6543
25.8147 -40.2541
26.8568 -39.6727
27.734 -40.1911
28.8284 -40.6373
29.6589 -39.7563
30.6391 -40.1615
31.5702 -40.5796
32.5953 -41.1338
34.4193 -41.1081
35.3905 -39.5792
36.3026 -40.1639
37.2252 -39.6983
38.1543 -40.078
39.0803 -39.4058
40.012 -39.9952
41.0294 -39.5156
41.8371 -40.1245
42.7711 -39.6497
43.66 -40.153
44.5982 -39.6228
45.5066 -40.1898
46.4049 -39.6605
47.4072 -40.1995
48.4432 -39.7921
49.39 -39.4441
-49.7407 -38.9396
-48.5752 -39.3559
-47.512 -39.1419
-46.1608 -39.0196
-45.1391 -39.1665
-44.0432 -38.9571
-42.8931 -38.9158
-41.8446 -38.7293
-40.9506 -39.4188
-39.9886 -38.8649
-39.0673 -39.3384
-38.204 -38.7987
-37.2737 -39.306
-36.3992 -38.6752
-35.4994 -38.1357
-34.3923 -38.5005
-33.4435 -38.1239
-32.5661 -38.7755
-31.2892 -38.9336
-30.2642 -38.916
-29.2509 -38.8649
-28.1581 -38.9091
-27.1364 -39.063
-26.1189 -39.1238
-25.0617 -39.198
-24.0307 -39.2962
-23.0197 -39.383
-21.9287 -39.5103
-20.8886 -39.5643
-19.8413 -39.669
-18.7794 -39.6923
-18.2873 -38.7916
-17.2868 -38.8735
-16.1277 -38.9774
-14.9636 -39.1294
-13.9031 -39.3015
-12.85 -39.1777
-11.7898 -39.0831
-10.6497 -39.145
-9.61999 -39.152
-8.45977 -39.1417
-7.31602 -39.1261
-6.32261 -39.2099
-5.29099 -39.131
-4.30057 -39.0026
-3.36664 -39.3646
-2.49975 -38.7552
-1.57162 -39.1838
-0.735386 -38.5478
0.301956 -38.6923
1.46994 -38.2266
2.80681 -38.5989
3.73968 -38.2033
4.74292 -38.2526
5.83083 -38.2806
6.8598 -38.2242
7.39573 -39.2352
8.92651 -38.3525
9.88867 -38.6395
10.846 -38.3119
11.6964 -38.8511
12.7017 -38.3636
13.5779 -38.9016
14.564 -38.4001
15.4158 -38.9171
16.4965 -38.391
17.489 -38.83
18.4318 -38.413
19.4371 -38.0902
20.2652 -38.6603
21.2096 -39.2901
22.1453 -38.8586
23.1528 -38.4603
24.0576 -39.064
25.0683 -38.616
25.8889 -39.2432
26.8961 -38.6421
27.7418 -39.1732
28.6633 -39.5846
30.7822 -38.8777
31.6463 -39.5776
32.5187 -40.1033
33.4291 -40.5537
34.4307 -40.0964
35.3701 -38.4862
36.254 -39.0655
37.1853 -38.6335
38.1255 -39.0628
39.2241 -38.4195
40.0432 -38.9984
40.9659 -38.4794
41.8795 -38.9954
42.8422 -38.5176
43.7486 -39.1051
44.6971 -38.5477
45.5497 -39.1394
46.5005 -38.5993
47.483 -39.2051
48.4213 -38.7966
49.3529 -38.3622
-49.7537 -37.8484
-48.8684 -38.3985
-47.9197 -38.066
-46.8508 -38.2501
-45.8995 -37.8443
-44.9261 -38.1685
-43.5248 -38.0998
-42.5156 -37.975
-40.8861 -38.4166
-40.065 -37.8334
-39.1507 -38.318
-38.2938 -37.792
-37.3336 -38.2618
-36.5012 -37.6725
-35.5247 -37.1317
-34.5596 -37.5156
-33.6549 -37.059
-32.6862 -37.312
-31.9292 -37.9772
-30.7787 -37.8737
-29.7691 -38.0046
-28.6684 -37.9719
-27.5551 -38.1112
-26.456 -38.1824
-25.4567 -38.2508
-24.4436 -38.3886
-23.3857 -38.4562
-22.3556 -38.5802
-21.3513 -38.6334
-20.3343 -38.7179
-19.3286 -38.7712
-18.7472 -37.8903
-17.701 -37.8917
-16.5348 -37.9814
-15.5058 -38.1282
-14.4269 -38.2314
-13.3453 -38.2513
-12.348 -38.1895
-11.1823 -38.2525
-10.1087 -38.2657
-8.97171 -38.2748
-7.94272 -38.2258
-6.83688 -38.2207
-5.79748 -38.2255
-4.76841 -38.0642
-3.52194 -38.3421
-2.67835 -37.7012
-1.67764 -38.1515
-0.911628 -37.5013
0.13119 -37.7053
1.12497 -37.2632
2.24409 -37.5959
3.22123 -37.3042
4.23588 -37.3163
5.30402 -37.293
6.31633 -37.3762
7.8949 -38.3397
8.58545 -37.3772
9.79662 -37.552
10.8261 -37.265
11.783 -37.8424
12.6689 -37.3392
13.6171 -37.8733
14.6295 -37.3847
15.6357 -37.8578
16.5265 -37.3213
17.5044 -37.8338
18.5848 -37.3318
19.7379 -37.0289
20.503 -37.6805
21.3349 -38.2767
22.2418 -37.8187
23.3712 -37.4616
24.2436 -38.0498
25.1647 -37.5813
25.9841 -38.1979
26.9957 -37.5963
27.9329 -38.154
28.8513 -38.5596
29.8653 -38.4545
31.7287 -38.456
32.6452 -38.9464
33.5519 -39.4999
34.411 -38.8006
35.4156 -37.4451
36.3203 -38.0334
37.3152 -37.6192
38.2861 -37.8737
39.2667 -37.3771
40.1243 -37.9499
41.0753 -37.4533
42.0244 -37.9402
42.9673 -37.5094
43.8136 -38.0913
44.7096 -37.5434
45.6108 -38.0648
46.5943 -37.6046
47.4821 -38.1875
48.4975 -37.7224
49.4002 -37.2902
-49.6978 -36.8274
-48.7669 -37.3996
-47.8221 -37.0411
-46.7253 -37.2311
-45.2781 -37.0374
-44.2046 -37.3437
-43.1428 -37.1719
-42.1975 -36.8305
-41.3967 -37.4611
-40.3276 -36.8312
-39.2693 -37.2092
-38.3751 -36.7641
-37.3821 -37.178
-36.4879 -36.6453
-35.66 -36.0424
-34.7194 -36.5313
-33.8519 -35.9942
-32.8449 -36.2015
-31.8384 -36.1578
-31.3831 -37.0774
-30.245 -36.841
-29.1324 -37.081
-27.9783 -37.1858
-26.9379 -37.2849
-25.8742 -37.3272
-24.7987 -37.4488
-23.7924 -37.5056
-22.7687 -37.6342
-20.9326 -37.7263
-20.4089 -36.8313
-19.767 -37.847
-19.3895 -36.9218
-18.2861 -36.9866
-17.0449 -37.1128
-15.9048 -37.1312
-14.9227 -37.287
-13.9245 -37.3247
-12.9182 -37.3264
-11.6972 -37.342
-10.6089 -37.3421
-9.55897 -37.3442
-8.50394 -37.3789
-7.43306 -37.3482
-6.33019 -37.2892
-5.21152 -37.0546
-3.76941 -37.306
-2.85905 -36.6904
-1.91321 -37.061
-0.937256 -36.4771
0.0820592 -36.691
1.00487 -36.2717
2.01369 -36.6199
2.95978 -36.2919
4.0072 -36.3109
5.09316 -36.2665
6.24649 -36.3079
7.46872 -37.3639
8.37414 -36.3622
9.55112 -36.5146
10.5418 -36.3083
11.7271 -36.6023
12.7734 -36.341
13.7399 -36.6921
14.7122 -36.381
15.6514 -36.7371
16.6009 -36.2728
17.4591 -36.8351
18.2481 -36.1975
19.2507 -36.1103
20.2675 -36.0588
21.3596 -37.1316
22.3683 -36.8303
23.4126 -36.4627
24.2926 -37.0468
25.1942 -36.493
26.1242 -37.0638
26.9981 -36.5928
28.0028 -37.1323
29.0848 -37.5906
30.0722 -37.3268
31.0681 -37.6871
32.5043 -37.8093
33.5047 -38.3585
34.4317 -37.7518
35.6063 -36.4324
36.559 -36.9382
37.4391 -36.3682
38.3741 -36.8046
39.3341 -36.2822
40.238 -36.9141
41.1972 -36.3997
42.0931 -36.9256
43.0803 -36.3223
43.8791 -36.9722
44.8381 -36.3826
45.7157 -37.0529
46.5994 -36.5863
47.5695 -37.1455
48.4785 -36.7226
49.4207 -36.29
-49.573 -35.8213
-48.7317 -36.3691
-47.7416 -35.9309
-46.1365 -36.4114
-45.2375 -35.9496
-44.3062 -36.3511
-43.3095 -36.167
-42.2646 -35.7785
-41.2828 -36.3824
-40.4584 -35.8211
-39.5391 -36.2152
-38.602 -35.6711
-37.5552 -36.1939
-36.6701 -35.5798
-35.7976 -35.0417
-34.7409 -35.4628
-33.7013 -34.9838
-32.5556 -35.2203
-31.4671 -35.2089
-30.7714 -35.9464
-29.7851 -35.737
-28.4088 -36.2759
-27.3739 -36.3741
-26.2583 -36.3859
-25.1676 -36.5065
-24.1723 -36.4861
-23.1884 -36.6909
-22.283 -36.2282
-21.854 -37.2038
-21.2537 -36.2891
-19.8205 -36.0185
-18.8303 -36.0809
-17.6715 -36.1487
-16.5678 -36.2142
-15.5575 -36.1848
-14.5523 -36.3163
-13.4222 -36.4439
-12.4184 -36.4029
-11.3757 -36.396
-10.3206 -36.3774
-9.11389 -36.4444
-7.99841 -36.4886
-6.98692 -36.401
-5.97272 -36.3541
-4.71854 -35.8565
-3.80755 -36.2757
-2.86282 -35.6867
-1.88991 -36.0597
-1.08421 -35.45
0.244763 -35.6195
1.52967 -35.4134
2.53682 -35.3793
3.53641 -35.3941
4.61914 -35.3893
5.71365 -35.4659
6.78206 -35.4407
7.24598 -36.3771
7.92939 -35.4486
8.97695 -35.5327
10.1803 -35.3473
11.2844 -35.6225
12.2775 -35.4162
13.4791 -35.5826
14.4791 -35.3829
15.472 -35.5624
16.4423 -35.2796
17.6453 -35.2957
18.6681 -35.2569
19.685 -35.1971
20.7189 -35.0953
21.3061 -36.0836
22.4741 -35.8363
23.4173 -35.4568
24.3587 -35.9569
25.2369 -35.4623
26.0946 -36.0575
27.3351 -35.5664
28.2358 -36.1476
29.1845 -36.5929
30.9275 -36.6818
31.8585 -37.0425
32.7831 -36.5467
33.4615 -37.3286
34.5532 -36.5878
35.6078 -35.4258
36.5395 -35.8945
37.5204 -35.3617
38.4704 -35.7567
39.4054 -35.2823
40.3335 -35.8094
41.2667 -35.3222
42.1643 -35.8934
43.1095 -35.2722
43.9788 -35.8779
44.9111 -35.3103
45.7296 -35.9312
46.7851 -35.5097
47.5956 -36.1015
48.5881 -35.6644
49.5357 -35.2981
-49.4757 -34.8275
-48.6179 -35.3555
-47.5723 -34.9273
-46.7636 -35.6204
-45.8367 -35.1468
-44.1371 -35.3534
-43.0472 -35.1625
-42.1497 -34.6784
-41.3254 -35.2459
-40.4571 -34.7128
-39.4856 -35.2145
-38.612 -34.6379
-37.6892 -35.1663
-36.755 -34.5607
-35.8641 -34.047
-34.966 -34.4818
-34.1006 -33.9716
-32.9963 -34.2133
-31.9875 -34.3393
-30.6078 -34.6796
-29.5745 -34.6182
-28.8503 -35.3852
-27.8143 -35.47
-26.749 -35.4906
-25.6114 -35.552
-24.5544 -35.5259
-23.5132 -35.7043
-22.4607 -35.1473
-21.3009 -35.2376
-20.3112 -35.1113
-19.2844 -35.1721
-18.2522 -35.26
-17.1433 -35.2982
-16.1399 -35.2419
-15.1187 -35.2596
-14.1141 -35.3246
-13.1069 -35.4674
-12.003 -35.4719
-10.9561 -35.4643
-9.7766 -35.5345
-8.76509 -35.4915
-7.76083 -35.4374
-6.71571 -35.4276
-5.61537 -35.3973
-4.79509 -34.8002
-3.89873 -35.2548
-3.08012 -34.6917
-2.0339 -35.0572
-1.2411 -34.4411
-0.135738 -34.6226
0.971946 -34.5765
2.03757 -34.5061
3.0641 -34.5057
4.09104 -34.5313
5.2717 -34.5144
6.2879 -34.5671
7.42906 -34.5263
8.48345 -34.5341
9.47587 -34.6403
10.7176 -34.4563
11.7371 -34.5607
12.8017 -34.5656
13.9028 -34.5192
14.9237 -34.4559
15.9232 -34.4124
16.9833 -34.3914
18.0548 -34.365
19.0933 -34.3277
20.1401 -34.2182
21.2831 -34.2567
21.7243 -35.1762
22.3876 -34.4023
23.3926 -34.4445
24.3189 -34.956
25.5295 -34.5079
26.3807 -35.0534
28.2554 -35.1135
29.1222 -35.5943
30.0892 -36.1255
31.043 -35.501
31.9225 -35.9961
32.8516 -35.4575
33.7216 -35.9915
34.5316 -35.3365
35.6201 -34.4173
36.5955 -34.8979
37.4676 -34.3155
38.4627 -34.7394
39.4364 -34.2478
40.3862 -34.815
41.3008 -34.2553
42.1966 -34.8165
43.233 -34.0799
44.0124 -34.7274
45.0921 -34.1362
45.9411 -34.8503
46.8943 -34.4214
47.7481 -35.0593
48.6908 -34.6692
49.6347 -34.1968
-49.2036 -33.7637
-48.3954 -34.3619
-47.4441 -33.9288
-46.619 -34.4913
-45.6869 -34.1354
-44.7821 -34.5806
-43.7424 -34.3738
-42.8329 -33.9241
-41.2787 -34.1102
-40.4081 -33.6194
-39.573 -34.1636
-38.6467 -33.6287
-37.7224 -34.1322
-36.8304 -33.5175
-35.9382 -33.0348
-35.026 -33.4835
-34.1671 -32.9708
-33.1998 -33.2276
-32.2022 -33.3645
-31.123 -33.6016
-30.1231 -33.7786
-29.1102 -33.7351
-28.4235 -34.4749
-27.349 -34.5714
-26.1907 -34.5922
-25.078 -34.6752
-23.9662 -34.6978
-22.9368 -34.2171
-21.9189 -34.285
-20.8771 -34.2833
-19.7452 -34.2921
-18.699 -34.345
-17.6868 -34.3543
-16.6494 -34.3446
-15.6081 -34.3636
-14.5729 -34.4264
-13.4831 -34.5229
-12.486 -34.5762
-11.4809 -34.5894
-10.3831 -34.5939
-9.32166 -34.4819
-8.30566 -34.5171
-7.28008 -34.556
-5.82556 -34.4114
-5.04254 -33.7113
-3.98946 -34.2032
-3.14319 -33.6245
-2.25278 -34.0823
-1.49918 -33.4261
-0.537191 -33.6973
0.475967 -33.6617
1.48324 -33.6176
2.56528 -33.6152
3.56588 -33.6415
4.68673 -33.695
5.71185 -33.6194
6.78337 -33.6977
7.99206 -33.5925
9.11663 -33.6778
10.1144 -33.5247
11.2303 -33.5874
12.3308 -33.5944
13.3701 -33.6293
14.454 -33.5358
15.4673 -33.5183
16.5698 -33.4714
17.6208 -33.378
18.6358 -33.2994
19.6447 -33.3303
20.6689 -33.3711
21.749 -33.3569
22.7444 -33.4558
23.7667 -33.4787
24.6962 -33.9321
26.4967 -34.0427
27.395 -34.5272
28.3146 -34.1061
29.1805 -34.6008
30.0901 -35.0485
30.9286 -34.4795
31.9017 -34.9528
32.7947 -34.3079
33.7173 -34.7326
34.6212 -34.241
35.6065 -33.4163
36.5257 -33.8729
37.366 -33.3102
38.436 -33.739
39.3374 -33.2103
40.3447 -33.7967
41.2307 -33.2218
42.1328 -33.6541
43.1784 -33.0211
44.1938 -33.6247
45.1169 -33.1131
46.0472 -33.8343
47.0676 -33.3957
47.8707 -34.0542
48.8229 -33.6062
49.8921 -33.2004
-49.0797 -32.763
-48.2603 -33.3447
-47.2512 -32.9012
-46.4082 -33.4413
-45.3743 -33.1626
-44.4349 -33.5895
-43.52 -33.1607
-42.5412 -32.8955
-41.5197 -33.124
-40.4244 -32.617
-39.5017 -33.0764
-38.6236 -32.5624
-37.744 -33.0498
-36.8528 -32.5106
-35.9442 -31.9927
-35.0609 -32.4684
-33.5481 -32.1885
-32.5588 -32.4066
-31.5314 -32.55
-30.5125 -32.711
-29.5102 -32.8051
-28.478 -32.9396
-27.6947 -33.6078