ITEM: TIMESTEP
5000
ITEM: NUMBER OF ATOMS
10000
ITEM: BOX BOUNDS pp pp pp
-9.9000000000000000e+01 9.9000000000000000e+01
-9.9000000000000000e+01 9.9000000000000000e+01
-1.9800000000000001e+01 1.9800000000000001e+01
ITEM: ATOMS x y
-97.4258 98.4543
-97.234 -96.7452
-93.4739 -98.2842
-92.0439 -98.9072
-90.5371 -97.7424
-87.0253 98.8038
-85.9849 -98.5763
-81.7452 97.4333
-84.0164 -98.5473
-83.0099 -97.3211
-76.8585 -97.2279
-77.6972 98.47
-76.7139 98.8863
-72.8095 97.3626
-72.5563 98.9226
-68.2644 -98.8021
-67.0021 -98.4284
-64.6098 -98.3308
-62.66 98.0917
-62.9204 -97.7712
-60.8477 98.4282
-59.8582 97.9178
-55.5944 -97.2781
-54.3037 -98.3496
-53.4509 -96.7361
-51.8649 98.2317
-49.6036 -97.6668
-45.1397 -98.2469
-41.0977 97.498
-40.8928 -96.6642
-39.7144 -97.7499
-37.8531 98.2719
-35.6108 97.8108
-32.4444 98.9879
-31.5292 -98.0627
-32.4032 97.9882
-27.0641 -98.6355
-26.367 -97.3715
-21.9166 97.3824
-20.6725 -98.1121
-18.7753 -97.5463
-17.6129 97.5701
-17.5331 -98.5112
-15.4106 -98.4968
-12.5387 98.5306
-10.7356 -98.5732
-9.07895 -98.1512
-7.30237 97.5151
-3.13158 97.5641
0.0738468 98.0787
0.209149 97.055
2.71389 -98.0194
4.23777 -98.2123
9.11999 -97.7222
6.33046 95.7431
7.45154 97.9498
10.3163 -97.8309
12.9386 98.1011
14.4999 -98.3003
17.4411 97.6013
21.3266 -96.0648
23.3642 96.9389
24.0104 -96.7042
25.5012 97.2506
28.7572 98.4535
29.8086 -98.3717
32.5196 97.9812
32.5647 -97.8016
36.0095 98.3728
38.3165 98.3801
40.3011 -98.8436
39.2925 -98.319
44.1087 96.5336
45.4717 96.1785
46.1769 -98.6653
51.6249 -98.3527
52.6873 -97.4762
52.4451 -98.9975
55.3327 98.3155
56.3564 -98.3912
58.2138 98.5761
60.5825 96.9718
63.0777 -96.7469
63.5391 -97.9407
66.7574 98.8348
70.1763 98.1188
72.9022 -97.8649
71.2899 -97.6763
75.094 98.3682
79.8125 -97.0418
78.7962 98.6514
79.8037 -98.9207
83.8784 96.3565
83.677 98.9077
86.5258 -98.0376
90.8667 -97.5346
89.8743 96.0104
92.6252 -97.4668
93.8967 98.129
96.0246 -98.5263
-98.5343 -96.3158
-95.5198 -97.1029
-94.3162 -97.6349
-92.2312 -96.9772
-89.2485 -98.4115
-88.4586 -96.8914
-85.7468 -96.8228
-84.5857 -97.4439
-84.9688 97.6247
-83.1072 -95.1507
-79.857 -97.7684
-76.1593 -95.2857
-73.9111 -97.5629
-74.7998 -95.9426
-71.6138 -98.4649
-68.8902 -96.6126
-70.1622 -98.668
-65.9267 -97.6398
-63.9723 -96.7649
-60.3988 -98.3767
-59.477 -97.9584
-59.505 -94.8881
-55.4035 -94.7487
-54.9469 -96.1999
-51.1257 -96.6865
-50.8984 -97.847
-46.4608 97.955
-45.0241 -96.2003
-42.4177 98.5285
-42.672 -96.2476
-42.3687 -98.1338
-37.0901 -97.984
-32.9626 -97.5577
-34.6889 -94.7227
-31.0302 -97.078
-30.1464 -98.4361
-24.797 -95.9909
-24.5033 -97.5954
-23.4792 -97.0506
-22.0689 -98.3026
-19.3004 -96.0803
-18.0539 -96.6288
-16.6141 -96.381
-13.2747 -96.9971
-10.1803 -97.4814
-9.38793 -95.863
-5.74492 -96.7513
-6.26187 -97.679
-4.25967 -96.4054
-1.98167 98.541
1.20054 -96.4133
2.67291 -96.4619
4.2452 -95.6536
6.80701 -98.554
9.94209 -96.4646
11.1471 -95.9112
11.6416 98.0749
11.9752 -96.8191
16.3245 -95.808
15.9463 -98.5509
17.6057 -94.8697
22.91 -96.325
22.0507 -94.8151
24.3908 -97.815
28.3934 -98.0285
28.8765 -93.8909
32.119 -96.296
31.6946 -98.6063
33.7763 -97.3927
37.0187 98.6251
38.2698 -96.8021
41.824 -98.9037
45.776 -97.2076
43.8397 -97.9777
49.3719 -97.3717
51.7337 -93.4853
51.1793 -97.1685
54.3575 -97.5193
54.2679 -98.9536
57.1782 -97.6154
58.3573 -97.2252
61.8711 -95.8584
64.1358 -96.6813
65.4271 -97.2556
66.4706 -96.7444
69.8526 -97.8036
71.3675 -96.655
74.0356 -98.0089
75.8522 -97.5751
76.0743 -96.3552
80.9331 -95.7911
82.5672 -98.166
84.68 97.7976
83.0191 -95.8294
84.8374 -97.0801
87.9153 -98.1511
89.4635 -96.7138
93.8429 -98.4838
97.1951 -96.5759
97.701 -97.9034
-97.9592 -94.2121
-97.5448 -95.3594
-96.1055 -95.934
-91.6615 -93.7722
-90.953 -96.7065
-90.7151 -94.5516
-88.4325 -94.4602
-84.8573 -94.5068
-83.8574 -94.183
-81.4164 -94.2455
-81.8576 -96.9616
-78.6783 -95.9507
-71.4505 -95.7259
-72.9675 -97.218
-70.8436 -96.7055
-71.7812 -93.2278
-66.1526 -93.1644
-64.428 -94.6969
-66.0515 -95.9221
-61.3332 -97.5257
-58.7708 -95.6703
-57.5395 -96.0391
-57.5396 -91.6999
-54.5008 -94.0157
-48.2198 -96.1135
-48.2593 -97.8821
-47.0144 -95.6113
-46.2748 -98.1611
-44.1252 -95.4077
-42.7653 -94.0752
-40.5261 -94.8276
-34.3021 -98.2379
-37.2195 -96.9842
-31.2512 -94.1863
-30.0109 -95.2687
-29.5379 -96.6615
-27.9514 -96.129
-26.5202 -94.6012
-23.6368 -94.5774
-21.8075 -94.3797
-20.7949 -94.1696
-19.9005 -94.9508
-16.8749 -93.255
-15.3149 -95.7004
-11.7328 -95.2418
-10.6889 -95.5429
-7.99788 -93.6931
-6.53857 -95.1039
-0.323673 -96.3662
-3.42967 -93.4458
2.9683 -94.411
4.42425 -96.7118
5.60245 -97.4387
6.58058 -96.794
5.0985 -92.949
11.4755 -92.5248
13.3518 -96.4354
15.6606 -94.6261
16.6108 -93.5119
19.6009 -95.8196
20.0804 -93.0584
23.3055 -95.2256
25.6681 -96.7479
26.4414 -97.806
26.7276 -94.2925
30.5308 -94.8024
33.3536 -94.6476
34.0651 -95.5197
36.5687 -97.1209
35.6393 -95.4098
38.3574 -93.9479
39.735 -96.9538
42.4595 -95.5276
45.151 -94.4135
46.6208 -96.0745
50.5677 -92.3553
54.1391 -95.8691
55.6709 -93.7953
55.6787 -96.4013
57.4771 -95.925
60.7189 -95.7324
60.5038 -92.9849
63.7939 -95.2029
65.4494 -94.4297
69.8697 -95.6043
70.2721 -93.6255
71.302 -95.4933
74.1256 -96.1026
74.2093 -95.0202
76.5491 -95.3542
81.9756 -96.0963
81.1329 -93.6495
83.1523 -94.8313
84.3775 -94.4654
88.3751 -96.5047
88.0852 -93.2413
94.3356 -92.347
92.2489 -95.0228
96.456 -94.8574
-98.5116 -93.1376
-98.7164 -92.1047
-97.5507 -91.0022
-96.1634 -94.2637
-94.3657 -92.9514
-90.7793 -92.5161
-87.3756 -92.047
-87.205 -96.676
-87.2921 -93.3533
-81.3168 -96.019
-82.1319 -93.3843
-79.6531 -92.4504
-78.027 -92.904
-76.3696 -92.6188
-72.8996 -95.4704
-75.017 -94.0489
-73.7002 -91.0461
-68.8276 -93.9511
-65.2679 -94.0917
-64.1744 -93.0149
-62.2686 -92.8907
-59.8118 -90.6263
-60.3459 -93.5282
-55.4719 -93.6314
-52.5018 -91.8973
-52.0595 -93.9964
-50.4095 -93.99
-48.8154 -92.7865
-44.411 -94.3719
-41.7376 -92.6533
-41.5414 -90.5884
-40.3145 -90.8712
-39.0075 -94.4485
-37.1185 -93.1509
-33.4727 -93.4077
-31.2992 -90.661
-30.3877 -90
-26.1814 -90.5554
-25.962 -93.3459
-24.5178 -92.2124
-23.7968 -92.9061
-20.5466 -93.1788
-18.431 -90.682
-14.4529 -91.822
-12.9706 -94.2895
-11.6662 -93.1098
-9.96933 -93.3762
-9.1332 -92.4359
-6.68807 -92.3812
-4.55541 -92.5479
-1.26673 -94.1676
-0.107091 -92.8756
2.4682 -92.0627
4.31736 -93.9013
5.14997 -91.6274
9.2861 -94.968
11.1394 -93.6483
12.4924 -94.0829
15.26 -91.5537
16.5003 -92.3917
17.5979 -93.6617
22.3197 -93.0714
22.6039 -91.9086
25.0422 -93.9714
25.7479 -92.2116
29.1762 -91.505
28.7077 -92.4479
31.1259 -91.2142
32.1151 -91.5966
33.5636 -93.1116
37.3948 -92.2942
40.4489 -91.3514
41.3045 -92.4824
42.7099 -91.4013
41.6309 -93.7718
45.8842 -95.2574
48.1827 -94.9879
52.0094 -92.0084
52.6186 -94.75
53.1981 -92.7609
54.2802 -92.3157
61.8251 -90.1118
58.3613 -94.9239
60.8235 -91.4481
63.2322 -92.4182
66.7551 -93.8087
67.9934 -92.7495
74.1043 -93.5304
71.4665 -92.7624
74.4789 -91.1813
77.2594 -94.3846
78.7874 -91.5505
83.0667 -92.8293
83.6617 -89.7445
85.2354 -93.6127
88.4466 -89.4392
89.6983 -93.4443
89.9986 -95.4297
90.149 -92.3295
94.7949 -96.5381
96.0248 -92.5162
96.7286 -93.8939
-94.587 -90.7522
-96.2861 -93.1415
-92.902 -92.3243
-90.42 -91.0362
-85.7221 -93.6888
-87.3589 -90.6144
-84.3865 -92.8548
-84.3902 -91.188
-81.3195 -91.7811
-81.9008 -89.2549
-78.6183 -91.9672
-77.1267 -90.6172
-74.8888 -91.0841
-69.808 -91.8177
-68.3141 -90.8314
-64.4692 -91.9426
-62.9786 -89.8634
-63.2904 -91.9446
-62.412 -88.7011
-60.7324 -89.6647
-58.7266 -94.2239
-55.3184 -89.2004
-54.9475 -91.2815
-51.4985 -91.6747
-50.9212 -92.7858
-47.2735 -91.3943
-44.7346 -91.8429
-44.1502 -92.681
-38.9193 -91.248
-40.2716 -87.5131
-39.4105 -90.1093
-35.526 -89.1479
-34.297 -89.838
-33.2449 -88.3153
-28.9132 -93.7875
-28.6385 -91.1205
-24.6403 -91.0497
-22.8784 -89.0825
-21.6076 -92.9658
-21.4037 -90.7126
-18.4391 -89.1934
-15.8148 -91.5695
-14.8087 -90.7889
-13.2733 -92.6337
-9.74738 -90.0216
-9.69619 -91.0205
-7.61125 -90.0716
-4.25518 -94.9263
-4.8937 -91.2323
-0.995965 -90.5062
4.12834 -92.3737
3.57089 -89.4958
4.57676 -89.2213
8.14541 -92.9604
9.82498 -91.0741
11.3039 -90.9808
14.4776 -88.2144
16.6336 -90.2252
18.1511 -90.3542
17.9891 -92.195
23.7972 -91.1642
23.5276 -93.085
27.6801 -91.0596
26.1497 -91.092
30.0017 -89.7406
31.8 -90.0644
32.8941 -88.7501
36.7829 -90.7646
38.5832 -90.7694
39.6907 -89.4332
40.3326 -88.5067
43.7368 -92.6392
46.0216 -88.2442
45.2817 -92.1954
48.9633 -91.2206
52.7828 -90.5048
54.404 -89.8436
57.5175 -89.4407
55.5591 -92.1028
58.7802 -90.6046
62.9147 -91.2665
65.4962 -91.7252
68.4152 -89.3756
66.9662 -92.6272
68.241 -91.4934
70.2617 -91.1649
74.0178 -92.1254
75.1723 -88.3488
78.9518 -87.5988
80.1759 -91.5203
79.9199 -93.5195
81.7181 -92.0115
85.2471 -88.0844
85.4657 -91.8311
89.4948 -89.2685
86.4926 -88.4483
92.4798 -90.4376
95.3399 -91.5243
96.2338 -90.4829
-98.0422 -89.7747
-96.0714 -89.7802
-94.0243 -89.1264
-92.8673 -89.1169
-87.5663 -89.5807
-88.4691 -91.1261
-85.5611 -89.7806
-85.4175 -91.1454
-82.5315 -88.4414
-82.0421 -90.3842
-78.3753 -90.7575
-76.3504 -89.9911
-74.1764 -90.0128
-73.393 -89.3048
-70.7578 -90.4728
-65.3379 -90.9922
-66.546 -92.0421
-64.4394 -88.1329
-62.012 -90.301
-60.97 -87.1789
-57.9932 -87.4237
-57.5848 -90.5992
-55.6908 -87.7414
-54.353 -90.2965
-50.4937 -90.6977
-50.0453 -88.8307
-47.7599 -89.6898
-48.1212 -88.7544
-44.4403 -90.1151
-44.8102 -88.9536
-42.7967 -90.5845
-38.5877 -89.2516
-35.0754 -87.8565
-34.0554 -87.3516
-32.1927 -89.869
-31.6234 -88.6253
-26.4351 -88.8562
-23.3909 -87.7969
-25.3054 -89.6228
-23.0163 -91.4042
-19.9855 -92.2394
-15.9882 -89.4362
-13.8763 -89.44
-13.6314 -90.8835
-10.959 -90.2267
-9.57191 -88.7016
-9.05864 -87.7286
-4.56493 -89.9171
-3.4421 -89.4448
-0.602453 -89.1672
2.57756 -90.194
2.48398 -89.0168
4.24398 -90.4495
5.88701 -89.3338
9.43224 -89.0879
8.5149 -90.4015
10.8006 -90.0614
15.2799 -87.5736
15.4438 -88.8336
16.8753 -89.1646
18.0319 -88.1336
20.0584 -90.7729
23.099 -90.1841
24.3946 -89.1382
26.9759 -90.0779
30.0133 -87.9234
31.507 -88.9548
30.3563 -86.8107
35.278 -90.8176
37.1369 -89.3511
39.3961 -87.7698
41.6633 -90.2643
44.6415 -87.6239
47.3034 -85.6523
46.231 -89.4345
51.0762 -90.7708
53.0948 -87.6246
55.3274 -88.2643
56.6035 -88.997
58.3977 -88.6412
60.5104 -88.1829
61.2757 -88.973
64.7255 -89.9175
65.7251 -89.9764
66.6087 -89.4952
66.4762 -88.3795
69.0079 -88.2498
71.2406 -86.7799
77.0413 -84.2307
76.3366 -90.6897
76.9827 -89.8652
80.1896 -87.8883
83.2272 -91.5209
81.8136 -90.7209
85.6067 -90.2147
89.3137 -88.2417
90.9431 -90.405
91.2821 -87.8271
93.9609 -88.8739
97.7904 -90.3579
98.9186 -89.1749
-98.7957 -87.9253
-97.7866 -86.5041
-94.953 -87.5485
-89.0569 -85.6958
-87.7011 -88.235
-85.591 -87.9717
-85.7042 -86.5453
-81.5395 -88.1428
-79.1784 -90.0012
-76.8982 -87.5471
-77.3342 -86.1836
-74.5275 -86.7875
-73.0119 -87.7212
-70.9666 -88.3133
-70.1518 -87.6857
-67.8594 -86.8036
-64.7788 -89.154
-65.5629 -85.1903
-62.5397 -87.3696
-57.1261 -86.5419
-56.3247 -88.7611
-54.8667 -85.8785
-52.0628 -85.2297
-51.9442 -88.6503
-50.2864 -87.3924
-46.8749 -87.1604
-46.1712 -91.9053
-43.9553 -86.2276
-38.7522 -87.7532
-36.1982 -84.5878
-36.7008 -87.1636
-37.3223 -88.2216
-35.9874 -85.6129
-30.2921 -84.6125
-30.5976 -88.4246
-28.5532 -89.6042
-27.0771 -86.7767
-21.8871 -87.577
-21.1523 -85.9448
-19.6928 -85.7534
-21.3862 -88.9334
-18.7256 -88.2367
-12.3118 -88.5077
-12.2943 -86.7042
-10.9781 -86.6484
-5.6164 -86.1688
-5.55864 -88.8587
-4.24673 -88.2211
-2.04425 -88.2803
-0.63573 -85.7575
0.420554 -85.3155
7.60421 -87.6839
8.04646 -86.6843
9.11732 -83.5035
10.3671 -86.844
13.6228 -89.3647
12.8432 -86.8442
16.6561 -86.5046
20.2259 -83.657
20.1776 -87.463
22.0633 -87.4657
23.5023 -88.3191
25.6748 -86.0148
23.371 -86.0469
28.1797 -86.6217
32.6331 -85.3609
33.8723 -88.0704
36.2993 -85.557
35.0778 -87.5017
38.5082 -86.4841
41.1783 -86.7679
42.509 -86.6179
47.8348 -87.442
49.4671 -89.7155
51.9923 -87.3437
51.3614 -85.3681
56.9261 -84.9846
54.1808 -85.9759
56.0545 -86.9177
57.2127 -86.2373
60.3151 -86.8623
62.928 -88.29
64.1071 -88.2755
65.5584 -87.5393
68.4116 -86.4871
71.2402 -85.0989
73.6055 -88.4753
76.5636 -86.9879
78.1991 -86.9389
78.8977 -85.6439
81.9681 -85.9532
83.378 -87.4588
82.9761 -86.3297
84.9696 -87.0554
90.4917 -87.1504
90.2902 -86.0896
92.9613 -86.1847
94.7887 -85.3605
97.1502 -88.526
97.4991 -85.994
98.5488 -86.7668
-94.1722 -84.0428
-94.4796 -86.5173
-89.9219 -89.1261
-89.2949 -87.1909
-87.755 -83.2331
-84.8744 -84.9053
-81.4784 -85.1659
-79.1314 -86.1025
-77.8833 -87.3177
-76.1131 -84.3314
-75.84 -87.8544
-70.5706 -85.742
-72.0291 -85.3325
-68.0989 -84.6861
-69.1195 -88.4026
-66.9673 -85.5323
-64.1913 -84.628
-63.0326 -84.4142
-59.4781 -86.3285
-57.3203 -85.5397
-54.313 -84.4429
-51.4434 -84.4038
-50.1158 -85.6885
-51.2172 -87.9594
-46.4148 -85.1468
-44.8474 -85.413
-43.358 -83.7115
-40.5394 -85.4282
-39.8654 -86.3383
-38.7491 -84.9409
-36.8811 -82.5926
-32.762 -85.5685
-32.7867 -84.334
-27.0151 -85.1328
-28.8053 -83.0911
-24.7809 -85.6151
-22.3092 -85.1092
-21.9562 -83.8512
-20.0506 -83.5896
-18.7782 -86.9415
-15.608 -86.2678
-14.2295 -85.5136
-11.1309 -84.4886
-11.4262 -85.7361
-7.88209 -87.4532
-2.86014 -87.3567
-3.23639 -84.9321
-1.80588 -85.2868
-0.458156 -84.5995
0.550412 -87.4715
5.11482 -86.9966
4.00891 -84.9912
7.13953 -85.6878
9.76522 -85.0599
11.6049 -87.676
13.1758 -85.2151
15.6216 -85.9572
17.7728 -86.828
21.2513 -84.2904
22.6046 -84.8674
23.5606 -84.3503
25.6617 -83.4008
28.8329 -85.6072
28.7338 -88.0227
34.1546 -84.9266
34.537 -86.4477
35.6419 -82.6817
36.3818 -83.8745
38.1809 -85.4152
41.2984 -84.7484
42.3358 -85.2699
44.0684 -83.208
45.8369 -85.8369
48.6661 -85.8883
50.2476 -86.0132
52.0501 -86.1757
54.3023 -84.5232
56.6336 -83.9734
60.6098 -84.822
61.7319 -84.0455
64.8865 -86.592
64.3906 -85.1274
66.4982 -85.9411
68.4483 -83.6561
69.6622 -86.4679
70.8732 -84.0583
75.3076 -83.3388
77.0249 -85.5942
78.6013 -84.3969
80.7929 -85.1418
83.9707 -85.7245
85.0625 -85.8029
86.7728 -85.1349
89.034 -86.8349
90.1376 -84.5456
91.5084 -85.4603
92.9779 -84.7391
96.6627 -84.0405
-98.0955 -83.5473
-96.9611 -84.0761
-94.9322 -80.9189
-89.57 -81.5395
-92.893 -86.4981
-91.411 -84.1226
-86.2501 -85.0176
-84.2241 -82.3997
-82.0853 -83.164
-78.0979 -85.1596
-81.415 -82.0972
-76.3139 -80.1599
-78.1696 -83.1373
-72.3988 -84.1792
-71.5108 -83.4143
-69.8456 -84.8422
-65.8657 -84.0541
-66.4944 -82.3784
-65.4191 -82.6051
-62.6796 -83.3839
-58.9621 -82.4517
-57.7725 -81.8831
-55.9122 -83.6764
-54.2163 -82.3548
-50.2069 -83.6059
-47.3194 -85.7483
-46.1787 -83.9496
-44.5153 -83.0749
-42.6292 -84.5719
-42.7966 -86.5857
-40.8597 -83.3438
-38.4046 -82.0985
-34.752 -81.8588
-35.142 -83.5067
-31.6875 -83.6744
-29.7894 -83.6622
-27.5381 -81.0212
-26.7378 -83.09
-22.7432 -82.2094
-26.124 -81.7379
-18.5618 -82.9802
-17.9157 -84.057
-16.4637 -83.9032
-13.9296 -84.304
-11.8218 -80.6583
-11.3519 -83.4668
-8.12892 -82.5757
-5.57521 -81.7538
-4.88668 -84.6957
-3.28535 -83.4597
0.525471 -83.9212
1.43057 -83.1232
4.45295 -82.9418
5.55914 -82.788
7.42201 -80.8753
11.334 -83.9732
11.4192 -85.9405
14.8981 -83.9226
15.7817 -84.6274
18.1209 -82.8356
20.367 -82.38
24.59 -83.3756
24.4816 -82.3829
27.0857 -83.5425
27.2062 -84.817
29.696 -84.4807
31.8859 -83.7042
31.492 -81.0673
33.0619 -83.0769
36.8063 -82.2242
40.9319 -83.8106
42.9478 -83.2993
45.5289 -82.2532
45.9432 -83.8003
48.168 -84.3684
49.824 -84.23
51.0352 -83.6226
51.9258 -84.4035
56.4894 -82.2252
58.9943 -86.2038
59.3859 -81.4808
63.8954 -83.5467
65.1587 -83.702
67.3425 -83.1997
67.2367 -84.832
70.2221 -85.5048
71.9215 -84.0114
74.4479 -83.9933
77.8733 -82.7856
76.9356 -83.2183
79.6708 -81.5339
82.1751 -83.591
82.8954 -81.4592
84.5019 -83.9982
85.1422 -84.7637
88.1977 -84.9132
91.4585 -82.162
91.071 -83.7765
95.069 -83.7406
96.2166 -82.3762
-96.5066 -81.8022
-96.1895 -80.6278
-93.4454 -80.2231
-92.137 -81.2381
-89.8758 -80.5335
-88.3194 -81.106
-85.9207 -79.9436
-84.1379 -81.1184
-82.6176 -81.5134
-83.49 -78.146
-81.7492 -80.4757
-78.0157 -80.2512
-72.6058 -82.0502
-71.5616 -82.2704
-72.5776 -79.8282
-68.657 -82.5874
-70.4858 -82.646
-64.5029 -81.6859
-63.0088 -82.1744
-61.5982 -81.9569
-61.1861 -80.6372
-58.6525 -81.0806
-56.2298 -82.3166
-53.1894 -81.1637
-51.4658 -82.9951
-49.2227 -84.8999
-48.2118 -83.1955
-45.4782 -81.1808
-46.3228 -79.1805
-44.4863 -81.9836
-37.1568 -80.7558
-43.0467 -82.1676
-35.6207 -81.3229
-34.3455 -79.7018
-32.484 -81.874
-30.0495 -82.651
-28.241 -80.1878
-26.7259 -78.3139
-24.2956 -80.5136
-21.6816 -82.4748
-19.8778 -82.2494
-17.6938 -80.9176
-16.6585 -79.6409
-14.2889 -78.5394
-11.7939 -78.2429
-8.61159 -83.6792
-6.90612 -82.0557
-6.80662 -80.9775
-3.23197 -81.2801
-3.51694 -79.4104
1.80435 -80.0146
3.18365 -81.1535
3.75439 -79.8155
4.17075 -81.5858
8.9086 -80.0633
8.64207 -81.8441
11.1322 -82.3582
13.2826 -81.1753
15.4054 -82.0734
15.61 -79.3111
20.0601 -79.3915
22.0691 -80.2901
23.4445 -81.9131
23.0307 -79.9262
25.3913 -81.5585
29.2987 -79.4186
30.5582 -81.8157
32.5764 -81.2095
34.5859 -82.1076
34.9853 -81.1536
39.3268 -79.5552
41.8388 -81.8856
42.9433 -80.6575
45.9785 -79.4259
48.158 -81.2901
51.1097 -80.3365
50.3687 -82.6512
51.8691 -82.1682
56.2516 -80.1807
58.3071 -79.158
57.2326 -81.4894
60.7929 -80.1423
63.6301 -82.4459
64.6584 -82.5978
66.6147 -78.9109
69.0645 -81.2599
68.4865 -82.6255
72.8162 -81.2178
74.394 -82.3447
78.2501 -81.6838
78.5429 -79.9774
80.0076 -79.8484
84.0455 -80.538
87.4303 -82.2814
88.1571 -83.5482
90.825 -81.0942
88.5329 -79.0522
93.0277 -83.6057
94.0755 -81.968
-98.2776 -81.8782
-96.7011 -77.7465
-97.2309 -79.9582
-94.7126 -79.2845
-92.3456 -77.8062
-90.9405 -77.1673
-90.3461 -79.5246
-88.3572 -79.1671
-87.2184 -78.9442
-84.4226 -79.0308
-79.3953 -79.8886
-77.85 -79.106
-75.7575 -78.9141
-74.9123 -80.3557
-73.1402 -81.086
-71.137 -81.0398
-69.4768 -79.7917
-68.1492 -79.9246
-66.7803 -80.2774
-61.8874 -77.8741
-62.1082 -76.8807
-60.841 -78.6132
-57.2106 -77.6827
-55.2249 -82.0758
-53.6081 -79.2834
-52.0791 -81.284
-49.0381 -80.5323
-49.0816 -78.377
-43.5665 -77.4829
-42.8614 -80.0508
-41.0831 -79.9885
-38.7783 -80.1518
-37.1899 -79.7019
-36.5478 -78.4863
-33.6633 -76.8399
-32.7112 -78.1002
-29.0422 -81.4494
-28.7848 -78.9351
-24.4254 -77.4967
-23.7969 -78.3006
-21.4416 -80.8537
-19.3624 -79.7006
-18.737 -81.0141
-16.2446 -78.1192
-14.9947 -77.1103
-13.8393 -80.1147
-9.61965 -80.4247
-10.3253 -82.058
-6.99079 -78.132
-6.76316 -79.5344
-2.23017 -80.5734
0.0978099 -78.8814
2.60182 -79.2197
3.84171 -77.9867
6.07282 -80.8264
9.5279 -79.1994
9.79986 -81.7554
12.0525 -80.8412
12.237 -78.0224
14.36 -80.1278
17.9569 -78.4103
21.7399 -76.7011
21.7526 -78.1259
25.9281 -79.5862
27.2485 -80.3217
29.4392 -77.585
32.2865 -78.5913
30.3528 -79.9137
32.3288 -79.9753
36.7602 -78.9965
35.8059 -79.9763
37.5112 -77.8382
41.0698 -81.1619
44.6262 -79.4796
46.5499 -78.5226
48.3157 -77.9184
49.121 -75.6558
53.5249 -80.8752
54.4412 -77.1214
53.5778 -78.3006
54.8406 -78.1762
59.696 -79.2774
62.6796 -81.0219
62.6706 -78.9676
65.8996 -81.423
67.6883 -79.6307
68.0595 -81.1849
70.9185 -80.4129
74.4968 -81.3315
76.0559 -82.2821
77.107 -81.2998
81.8991 -80.9349
84.2109 -78.3004
82.9224 -79.6387
85.7463 -82.0582
87.6463 -80.4912
87.67 -77.3064
94.2942 -79.2613
95.8334 -79.9784
96.9291 -81.292
98.0749 -78.4745
98.4653 -80.5397
-95.7232 -76.9184
-94.5456 -77.757
-93.2936 -78.5051
-91.3152 -76.0436
-89.5721 -74.5928
-87.1269 -75.2511
-85.4339 -76.3538
-84.5511 -75.8427
-80.4388 -76.297
-77.4258 -77.2089
-75.084 -77.4532
-72.5496 -78.7596
-73.7094 -76.6606
-70.8548 -77.7402
-69.2278 -77.7054
-68.7792 -78.6571
-64.6672 -78.8476
-63.9886 -77.2771
-61.498 -76.0315
-59.8139 -74.821
-58.4607 -77.3
-53.8282 -77.7589
-52.0153 -74.275
-50.8616 -78.5995
-49.2246 -74.9427
-47.3551 -78.5857
-47.4954 -76.48
-42.6219 -77.9907
-40.9833 -77.9615
-39.553 -77.0312
-36.8622 -77.4529
-35.6101 -78.0275
-34.3663 -75.5548
-32.0191 -74.3001
-29.8189 -78.8739
-28.4375 -76.9755
-25.259 -76.9344
-24.6986 -75.7758
-22.2353 -78.889
-20.7952 -78.0655
-19.8993 -77.2725
-17.2672 -75.7267
-15.8792 -75.8719
-11.059 -75.9258
-10.3556 -78.1604
-7.7326 -76.2776
-6.08069 -76.7576
-5.43241 -79.1923
-1.11365 -75.8965
1.96303 -77.8058
3.12874 -76.898
6.25381 -76.7753
5.95546 -79.7812
7.98214 -76.4097
12.4809 -76.8938
10.8798 -78.7425
15.2237 -77.1127
16.1696 -78.1382
18.9951 -78.0336
20.5053 -77.5449
22.6767 -75.2686
25.3575 -78.2109
26.4003 -78.5747
27.892 -76.7738
32.1058 -77.5588
34.6522 -79.1704
35.6609 -78.697
36.5667 -75.8768
40.1292 -78.278
40.9949 -79.7337
44.1209 -76.7023
45.2186 -77.6291
45.9561 -76.3086
47.0339 -76.3747
50.5353 -79.1208
52.2294 -78.2031
52.6556 -75.266
55.409 -76.3517
55.9191 -77.7623
58.9713 -76.5499
61.7716 -79.7775
63.9088 -74.4644
64.9193 -75.8227
63.9181 -78.5429
64.6532 -79.2207
70.2958 -77.1286
71.5304 -77.3119
77.3454 -79.5572
78.2012 -73.0165
79.3198 -76.8212
82.3586 -74.9765
84.7826 -75.4052
86.3466 -77.1842
87.6762 -75.0287
86.4931 -78.6804
90.9943 -77.8179
90.9984 -79.5525
94.6628 -77.2689
95.7758 -78.6934
96.047 -73.9605
-97.8208 -76.2711
-95.3415 -75.8352
-95.1528 -74.1139
-90.0138 -76.3264
-90.6197 -75.048
-86.8932 -73.5317
-84.742 -74.822
-82.9695 -73.2539
-80.1435 -73.8854
-75.9758 -76.0465
-74.3621 -74.9576
-73.1299 -72.9845
-71.7828 -77.2718
-69.8937 -76.3462
-67.8475 -76.9801
-68.7298 -73.5565
-66.3063 -76.5781
-63.0178 -73.8372
-63.8083 -74.6737
-62.4659 -74.8432
-55.9943 -78.1824
-55.0355 -80.0913
-53.0729 -76.6299
-50.5218 -76.6523
-49.9781 -74.2114
-45.9297 -77.0839
-45.0275 -76.5074
-42.4533 -76.9394
-38.1411 -76.4127
-38.1966 -74.0256
-36.233 -76.6005
-35.167 -73.5222
-35.7751 -74.7529
-33.2495 -75.2742
-29.8707 -76.7491
-29.1981 -74.0718
-29.6941 -75.406
-23.4669 -72.1642
-21.9715 -76.7344
-21.6435 -75.311
-17.0981 -73.4166
-15.0965 -74.8277
-13.7555 -73.1725
-12.2047 -76.0265
-10.3174 -74.4888
-9.27531 -77.615
-4.74214 -75.9369
-2.33939 -75.1275
-0.888095 -74.8163
0.351417 -76.0992
1.509 -74.803
5.49545 -73.9503
6.6444 -72.8904
10.3407 -73.5599
8.30399 -75.0039
12.0019 -75.9979
14.1384 -76.8313
17.0921 -74.5626
18.6371 -76.9137
18.5872 -73.1885
19.8125 -73.0511
22.5627 -74.0273
25.6228 -72.4607
28.7866 -74.0638
30.6808 -75.6069
33.1229 -73.1822
31.4636 -74.9417
34.8864 -75.6659
37.7919 -75.3064
40.4965 -77.2897
42.3402 -79.4144
42.4293 -76.5308
43.3634 -75.5037
46.9189 -74.2752
48.0051 -74.0115
50.7018 -77.1381
50.4044 -73.9403
56.3965 -75.4193
58.177 -75.3946
60.149 -76.3887
61.9908 -77.7727
62.5905 -73.9185
65.8272 -74.8169
67.1361 -75.056
68.5637 -77.6431
70.6846 -75.1421
72.2807 -74.1285
76.5293 -77.4317
77.4417 -75.7007
79.543 -75.636
80.9188 -74.4641
83.52 -74.9764
85.3228 -76.6815
86.4669 -75.3847
88.101 -76.1115
89.87 -76.9786
94.2245 -75.4301
95.4193 -74.9019
95.05 -76.0099
-98.6758 -71.7447
-96.3137 -74.7219
-94.2537 -73.6529
-92.3057 -73.8925
-90.5554 -71.5909
-88.1259 -73.8812
-85.1242 -73.8735
-85.9959 -73.0481
-82.6374 -72.0917
-81.4352 -71.4522
-77.8486 -75.9546
-78.7327 -71.9586
-76.1249 -73.5824
-75.6293 -71.6239
-71.3678 -74.6987
-72.7087 -71.9999
-69.5188 -72.8855
-67.8234 -74.078
-63.0981 -72.2882
-59.0385 -73.0617
-60.4145 -75.674
-56.7859 -76.5195
-57.7247 -74.4868
-52.643 -72.5829
-50.5359 -72.426
-47.4865 -74.083
-45.0991 -74.5531
-45.7949 -75.5191
-43.618 -76.3762
-40.5085 -71.227
-39.307 -73.7507
-36.5446 -73.7482
-34.8916 -71.1559
-33.54 -72.2545
-32.1872 -71.2902
-30.7664 -75.0379
-27.9719 -71.9928
-28.0802 -74.5698
-20.668 -70.0081
-23.785 -70.2923
-22.5573 -73.2217
-17.6279 -71.4795
-16.2685 -72.2856
-14.6528 -71.7828
-11.4394 -74.6047
-10.9546 -73.1217
-8.54974 -73.7099
-7.32214 -74.1483
-1.84993 -70.8077
-4.19993 -75.0249
1.0331 -73.7652
0.0283949 -70.5502
2.06765 -73.9136
6.23127 -71.9229
7.15697 -70.7044
11.1376 -71.1802
10.5588 -75.6984
14.5099 -72.9604
16.1261 -73.0226
18.4602 -74.6754
21.6605 -73.367
20.3577 -74.7986
24.1937 -73.867
24.4381 -72.702
27.8524 -72.9095
30.37 -74.4064
33.8117 -69.9489
34.3936 -71.7318
34.633 -73.9148
37.9536 -73.9238
35.445 -73.2714
41.3557 -74.1276
42.4728 -75.0195
44.1772 -72.9514
45.2017 -73.4871
50.9295 -72.8882
52.1309 -72.24
54.0398 -71.0364
54.5909 -72.8553
56.2254 -73.7642
58.0646 -72.8309
59.6529 -73.9064
64.7434 -73.7593
61.9575 -72.8438
67.061 -73.6261
69.9629 -71.899
71.3977 -71.3339
73.2837 -73.7507
74.6339 -75.0792
76.3729 -74.0772
77.5271 -71.248
80.5126 -69.9223
81.7526 -71.2534
85.8867 -71.3735
86.7986 -70.0246
87.5921 -72.5924
92.0536 -73.7277
92.5246 -71.7086
93.5796 -73.1643
95.2078 -72.4239
-97.8739 -70.0523
-96.2947 -72.8619
-92.7068 -72.0334
-93.0388 -70.1571
-91.5549 -70.392
-88.9207 -72.3523
-85.2338 -69.8795
-84.0637 -69.7248
-82.5567 -70.9102
-81.4056 -70.0558
-80.2747 -69.0087
-77.2032 -71.6761
-78.0981 -73.5185
-74.4888 -71.2608
-69.655 -71.7577
-68.872 -71.0144
-67.7724 -69.8696
-64.9272 -70.7426
-63.5923 -71.2427
-61.3992 -71.0693
-59.4124 -71.3419
-54.8264 -72.0352
-53.5718 -74.3013
-54.4692 -70.5634
-51.7971 -71.8967
-51.5562 -70.8075
-48.1811 -75.1524
-44.3891 -73.2004
-43.0165 -73.5532
-42.1201 -72.9216
-39.3069 -69.167
-39.0242 -72.7401
-37.5976 -71.9711
-33.284 -70.4182
-30.9069 -70.538
-30.2993 -72.5353
-26.8958 -71.8053
-24.7962 -73.3891
-23.5481 -67.2532
-21.3421 -71.9477
-19.5125 -73.2657
-17.7134 -70.1285
-16.5917 -70.7509
-13.8948 -69.4037
-13.5891 -71.2192
-11.0148 -71.3802
-7.64669 -72.1751
-4.54216 -71.7874
-5.37391 -74.1378
-2.43978 -72.2034
-1.60181 -69.5291
1.40003 -69.5193
4.55162 -72.8989
5.1348 -71.4256
4.97336 -68.3533
11.9167 -73.1444
11.7234 -68.9235
15.0816 -69.9653
17.272 -73.416
16.9443 -70.3684
21.0301 -70.6494
22.861 -72.622
22.9778 -68.7918
27.7103 -71.2557
32.224 -73.7851
33.2844 -69.0154
29.5801 -71.4257
31.9386 -71.9122
38.0171 -67.4368
38.9614 -68.9267
39.4397 -76.7977
44.5028 -71.354
42.8072 -73.4662
47.1063 -71.4198
47.8095 -68.3332
49.0501 -72.4194
52.8526 -69.9075
51.4184 -68.0623
55.9593 -71.4363
57.5577 -71.2343
60.3788 -71.8853
61.2665 -69.0486
65.0176 -71.4726
63.9666 -70.4246
68.0629 -70.8652
67.7415 -75.9074
70.7644 -70.1072
74.3081 -72.7193
75.3424 -71.3909
78.8751 -71.1308
80.3086 -73.6067
81.8257 -72.9592
85.2756 -72.5807
85.3104 -68.6007
88.3734 -71.7014
89.9176 -71.5586
89.8044 -70.3705
93.4806 -71.1623
94.8256 -73.8336
98.8634 -70.8474
98.8583 -68.2939
-97.6145 -67.6657
-95.3924 -71.391
-90.3037 -68.1224
-88.4397 -70.5402
-86.9331 -69.6393
-87.0323 -68.5446
-85.5981 -67.58
-80.8458 -66.5978
-82.8008 -68.7065
-80.8594 -67.9467
-76.2639 -72.4479
-75.8999 -70.0831
-72.9505 -68.3116
-71.6992 -69.8874
-69.7329 -69.4273
-70.6248 -67.6746
-66.1134 -71.759
-65.6666 -69.6173
-61.6323 -69.0239
-61.0207 -69.9807
-56.8158 -71.9035
-55.9186 -70.6978
-51.6427 -69.1902
-50.2338 -70.5844
-49.5481 -71.81
-46.4843 -72.5568
-46.2662 -69.9301
-42.8305 -70.962
-41.0284 -69.9084
-41.391 -68.2009
-36.6322 -68.7063
-32.9479 -69.3515
-30.4259 -69.1211
-29.7823 -68.1525
-27.1546 -66.4328
-29.9029 -70.7716
-26.7455 -70.6835
-25.2976 -69.4007
-21.8657 -66.5556
-21.2658 -68.5901
-19.8984 -69.1985
-17.3455 -69.1995
-16.3271 -68.671
-14.6353 -68.1774
-12.5928 -69.3954
-8.10483 -70.7574
-4.71755 -70.6452
-6.35689 -71.4328
-4.63113 -69.2052
-2.75249 -69.6577
2.87481 -68.9597
3.14028 -71.5544
4.82102 -70.4737
8.24272 -71.0232
9.50223 -70.1209
13.8547 -69.999
11.9924 -74.7348
16.192 -67.0731
17.5524 -71.2521
20.11 -71.0467
20.0598 -69.5798
23.9521 -69.9518
26.6517 -68.2522
26.7207 -70.0659
28.3398 -70.4021
32.2283 -67.0696
36.0256 -69.3362
35.2731 -68.1547
40.5569 -69.1109
41.874 -71.1659
43.376 -70.4981
44.0598 -69.301
43.2536 -66.8958
46.6518 -69.9696
49.836 -69.1577
47.8024 -69.7847
56.2787 -66.8109
56.058 -69.8217
57.5423 -69.971
59.9045 -69.2962
61.2217 -67.2512
62.5847 -69.5994
63.9496 -68.3121
65.0842 -69.9924
71.4053 -66.3497
72.9592 -68.721
72.9369 -71.3604
74.3583 -67.0542
74.076 -70.616
77.7963 -70.2449
83.5232 -71.7675
84.3484 -70.7037
84.0478 -68.6756
86.4777 -69.0254
88.9257 -68.977
91.0195 -71.5705
93.3694 -68.1922
94.6691 -70.7038
95.857 -71.5131
98.9172 -65.3848
-96.6694 -65.6404
-94.9652 -69.2084
-93.9635 -67.9617
-88.7809 -69.1155
-90.1708 -66.7232
-88.0433 -67.0568
-86.7657 -67.4572
-84.6295 -68.7473
-78.4476 -70.899
-76.8315 -68.7877
-75.8362 -68.4208
-74.8963 -68.942
-72.1603 -66.9924
-72.0242 -68.8048
-71.7087 -65.2395
-66.1829 -66.3076
-64.3054 -68.673
-61.9837 -67.8578
-60.8603 -67.8633
-58.8951 -67.3247
-56.5851 -69.7114
-56.941 -64.0954
-52.9537 -70.7533
-52.809 -67.3075
-51.6501 -68.0766
-50.1698 -67.5866
-49.1692 -70.3158
-45.3806 -68.5417
-43.2491 -69.7822
-40.722 -64.9785
-39.2396 -68.0685
-35.9455 -67.7701
-34.2118 -67.0938
-32.8972 -67.5635
-32.2557 -66.2786
-28.4242 -68.2746
-26.9403 -67.9239
-25.3982 -68.0452
-23.681 -66.1943
-20.9776 -67.4647
-18.1205 -65.016
-18.2159 -68.5061
-11.2664 -64.8784
-10.4843 -67.0548
-9.33472 -67.2125
-8.42637 -68.2204
-6.07296 -69.1539
-6.60289 -66.3547
-5.77948 -68.1545
0.760401 -68.4358
3.20929 -70.1144
2.42301 -66.7554
3.77156 -66.8743
6.65839 -69.1496
7.61494 -68.3946
9.32594 -67.7929
13.7326 -68.29
17.9091 -65.8039
18.6992 -68.9489
18.6075 -67.9049
19.4483 -67.3533
20.8778 -67.9248
23.225 -67.1541
25.7256 -67.2964
27.8116 -69.0368
31.2842 -66.0065
34.6638 -65.5387
36.6528 -66.9614
37.4771 -64.5048
41.5625 -68.3049
42.5765 -68.5434
42.3121 -67.5478
45.8131 -65.7757
48.8956 -66.3392
50.3479 -67.4838
50.8437 -70.0127
54.7163 -69.3147
55.3724 -65.5384
58.5126 -64.8506
58.516 -68.034
62.3152 -66.2396
62.3745 -68.5227
67.2138 -65.3746
68.7391 -67.1309
69.2281 -63.697
70.7556 -68.5854
73.2993 -66.7104
74.4869 -68.6132
76.5684 -66.3359
78.3227 -69.0942
82.1037 -69.5319
82.9581 -67.0203
84.2541 -66.8445
87.8757 -67.1359
87.8612 -69.637
91.6915 -67.7449
95.0514 -68.6646
96.1799 -69.1022
98.3792 -66.2471
96.7705 -66.0554
-98.4582 -64.5738
-93.8686 -66.9473
-94.8333 -64.9477
-91.589 -63.8825
-89.6199 -65.5441
-87.8082 -65.0011
-85.3718 -65.0143
-79.5459 -65.5995
-78.4646 -65.6131
-79.176 -67.9024
-76.3454 -67.0687
-73.2164 -66.6234
-76.0255 -63.5409
-71.8784 -64.0344
-69.8577 -63.5373
-69.6778 -65.8003
-64.1328 -67.2819
-63.931 -65.1208
-59.9051 -66.3758
-58.2638 -63.9978
-55.785 -68.3087
-53.6688 -64.5331