ITEM: TIMESTEP
50100
ITEM: NUMBER OF ATOMS
10000
ITEM: BOX BOUNDS pp pp pp
-9.9000000000000000e+01 9.9000000000000000e+01
-9.9000000000000000e+01 9.9000000000000000e+01
-1.9800000000000001e+01 1.9800000000000001e+01
ITEM: ATOMS x y
-88.9967 -96.9649
91.3921 89.9617
94.0906 96.3024
-91.9729 94.9098
-98.0967 -89.4564
-82.6837 97.8168
-84.8819 80.1631
-74.9201 98.9539
-83.0027 95.026
-80.0609 -97.7534
-54.2264 -89.1425
-91.2232 96.9708
-74.0817 -86.2072
-77.54 -95.3933
-74.0701 97.7227
-78.1555 86.7957
-63.2338 -97.3495
-69.8587 -98.1236
-60.7078 89.3242
-59.9047 -88.5942
-60.8814 80.8287
-65.5301 80.6906
-52.9955 93.4562
-52.4323 90.017
-60.7712 -95.8412
-66.3044 -88.663
-40.3242 87.9818
-40.7046 82
-36.1749 97.6296
-40.122 89.029
-48.5853 85.5719
-27.7678 95.0178
-43.431 95.916
-30.2577 98.9108
-35.6498 91.2338
-27.9827 92.4721
-38.8023 -88.3812
-35.5539 88.5407
-30.8025 94.6093
5.38927 76.3175
-16.277 -93.6969
-11.4944 83.9116
-43.5182 -82.979
-20.704 90.7193
-23.7114 89.5784
-30.5864 97.847
-24.5748 88.7512
-11.8815 98.4639
4.3601 98.0844
4.18117 -85.5221
14.7497 96.309
0.650261 -75.6017
4.67096 -88.5494
12.8923 -89.7399
1.91075 85.4837
1.43693 -92.6784
29.8243 87.9333
10.9518 -85.8697
3.70551 94.8624
19.1893 -94.7401
24.3986 65.7744
28.268 94.8392
24.7101 93.4635
27.7766 -90.996
33.3312 -90.084
5.88515 -70.0651
30.5985 -78.8902
38.8466 -80.7773
36.5784 -92.5683
26.8566 -79.0035
36.3842 -96.3876
41.2243 94.0005
38.0754 88.1284
32.6837 87.0815
33.6008 -93.9056
42.8236 94.9189
58.123 87.5164
52.3083 83.2388
54.83 97.2838
57.677 81.0472
56.6908 91.5592
61.7383 94.1088
70.4245 -95.5646
47.1091 97.8943
60.4228 -97.6632
50.281 94.3007
62.405 -95.4275
69.5083 -91.0901
68.1327 72.214
75.5033 -89.2707
84.1564 -98.4755
78.8873 -94.1365
74.6299 -94.3188
87.6843 93.9631
98.0753 -86.1354
95.5665 97.2599
95.0413 -96.7167
87.1014 -92.3718
86.7677 92.6882
91.8694 -96.0731
92.906 -76.1391
-97.0548 -90.072
-94.2302 93.2178
-82.3904 -93.9667
-91.1129 -89.0363
-97.0353 88.233
-95.4104 81.9835
-84.5181 91.3677
-70.7501 92.4905
-96.6578 92.5929
-81.4628 -72.8485
-75.9305 92.951
-85.7464 93.6469
-66.3162 -90.4467
-77.0271 89.8113
-76.736 97.9223
-71.2232 98.7129
-72.9434 -95.0023
-79.7103 97.1401
-51.242 88.7743
-57.4458 -72.1382
-51.3723 -85.8038
-61.3499 -88.5171
-36.6894 -95.0901
-58.859 -89.8306
-46.7376 95.658
-56.4265 96.5734
-51.3797 -98.7583
-44.4219 83.5127
-41.0462 95.4409
-26.021 83.8081
-33.1868 -90.1537
-28.4341 -86.8093
-47.8449 95.8755
-39.8772 -91.9515
-29.5052 92.2973
-28.833 95.7883
-22.473 87.6549
-18.6754 87.377
-22.9653 -88.9039
-18.3327 -86.6827
-26.1221 95.6344
-16.0497 92.4947
-17.2526 -97.5322
-24.5399 -97.5205
0.288802 -88.8857
-7.14628 -79.3296
-1.42405 96.9695
-15.9806 94.1474
2.64044 -86.4098
-2.03668 -98.3896
-1.22595 92.9684
-9.27432 95.6259
25.7135 -93.3053
14.9782 -87.7878
14.3442 -89.7509
-6.38216 -95.5117
6.87962 82.2215
20.1507 -95.3598
21.1553 -98.4966
8.83667 86.9112
17.0991 -88.2485
11.1504 -94.43
40.3682 96.7445
31.8406 -94.5539
24.0023 -83.0075
19.8833 -80.2055
39.2841 -94.7585
46.6782 -98.2193
26.7783 92.4309
40.0266 -91.1919
29.5874 -92.6837
50.7626 90.6124
49.9696 -95.6054
54.9321 95.0405
55.5578 -93.046
50.1932 93.0131
59.0556 96.1425
65.6593 90.1241
47.292 96.2748
56.659 93.2347
69.0159 -92.9358
76.988 -98.4994
84.5763 -81.6458
58.0062 97.1425
68.1845 -91.3646
73.3675 -91.4325
79.1309 92.309
69.2316 -77.2683
71.0477 -87.3878
97.0907 -89.0516
75.8161 -80.7916
86.2705 94.9181
-93.5152 91.612
85.0955 95.1984
98.7639 94.9979
-94.3783 -91.4037
85.2212 -94.6666
97.4428 -96.7344
85.8498 85.9264
92.1074 96.9426
97.3534 92.8556
-95.1871 -93.2627
-82.2029 81.623
-92.1706 -98.1624
94.8938 -86.7908
-91.521 90.9488
-88.1841 -98.6554
-92.9761 -84.1011
-82.1559 -91.23
-86.0853 90.8269
-60.2602 92.6332
-68.6739 -86.6466
-68.0674 -90.2078
-82.2983 -85.9646
-59.7801 -87.2109
-55.9497 -87.392
-57.8379 98.0842
-88.4681 84.9425
-66.4793 95.4543
-53.3067 -95.4886
-64.3594 97.0719
-40.8093 -93.8428
-51.6705 -90.6172
-57.5343 -95.1112
-38.111 -95.652
-50.3943 94.4966
-48.4128 -98.3791
-54.8478 96.6491
-27.9089 -95.1817
-45.9209 -98.7509
-25.8876 94.4171
-19.3834 -95.3448
-33.8122 -96.1814
-36.7414 -89.0267
-26.9967 89.0127
-17.3176 98.7987
-23.8126 90.8118
-31.2846 -81.4441
-13.2326 -89.608
-37.1396 -97.4624
-21.8299 -81.8221
0.471871 -77.4434
-24.8192 83.1848
-32.9985 -85.2388
0.886133 89.0269
-0.487112 -76.9825
-20.2106 -98.5645
5.02123 -97.4587
8.54064 -98.5619
10.2787 -83.7807
13.6941 96.6028
10.7067 -76.393
7.49747 -92.8438
-16.0345 -76.5781
20.6615 -88.0934
19.4752 92.1791
5.73527 91.4272
15.8337 95.6352
31.8437 87.8542
10.871 -81.8971
28.6663 -92.2015
31.6554 -91.5791
35.2781 -93.9475
22.3407 -74.6744
31.9195 -92.6747
41.3004 -88.245
27.6569 -95.5368
26.7539 -94.1242
31.8219 98.9232
36.1606 -89.4494
33.1925 96.2566
31.1238 -97.057
42.3447 -87.66
59.1432 -85.9296
40.6465 -94.8607
43.7947 95.6598
63.7106 -86.8879
60.9721 -88.8002
53.3007 93.2622
68.3107 93.5932
44.2697 98.3805
51.4438 -87.4937
71.9004 -82.4314
65.2595 94.9469
51.484 -80.8802
65.8958 -95.6587
93.9439 97.5612
67.679 -98.6335
87.4848 -88.423
92.4003 -98.0661
65.5267 -94.2919
87.5448 -84.8461
96.0459 92.4183
91.7015 -85.1656
83.8591 -82.9845
86.8472 -81.8466
78.8689 -86.7304
95.9171 98.512
-87.9005 -83.6586
91.7928 -92.3732
-92.8985 98.5785
96.9543 98.7763
95.3697 -85.1759
-89.5797 94.5236
-82.2385 88.7849
-89.3977 93.4316
-74.0865 -98.0209
-81.0982 -98.7111
-62.1669 90.8447
-92.9777 -96.5833
-76.5465 93.9349
-83.5579 -91.3018
-56.1288 -88.8272
-71.0662 94.0868
-65.782 -96.0227
-83.473 -89.2336
-72.0446 96.6515
-63.3862 93.4253
-62.0717 -95.9431
-57.0163 -85.8621
-53.7329 92.748
-50.0481 -87.8831
-40.404 -78.2063
-69.247 -90.3226
-64.3921 -93.763
-45.7228 96.1704
-46.5497 -91.4011
-36.9796 -92.9523
-42.8808 87.1839
-35.9989 -87.9142
-37.6838 -84.8664
-50.0328 92.8138
-45.8004 -89.5565
-25.3662 93.4916
-32.761 95.9081
-24.3036 -93.3744
-18.296 93.7868
-25.6533 -93.3848
-35.6253 -84.912
-10.6467 -96.2324
-40.939 -86.39
-1.4732 -81.7261
-20.2181 97.0825
-18.9608 97.1409
-20.7667 93.4365
-28.2966 89.8237
-13.6307 -86.15
-5.74588 -86.8972
2.04804 93.8211
-15.129 -90.6497
9.75275 -86.9971
18.2999 -79.0766
15.895 -98.9668
5.40547 89.035
6.30614 94.3574
28.2315 93.2254
10.2653 -91.4086
28.6927 -94.5285
18.2002 95.1078
17.8224 -82.8318
33.5345 -85.3282
23.9737 94.8731
26.4745 -88.4822
43.3819 -82.9991
22.0748 -80.78
17.8739 -86.0658
30.4426 -80.831
33.0627 -95.7873
41.4528 -90.9504
34.2149 -87.5353
38.587 -77.2604
41.4306 96.2301
37.9061 93.7607
29.0436 86.4862
43.3841 -93.2384
51.9585 92.9807
53.928 91.034
40.0586 98.4588
69.5112 -88.5528
67.9565 -92.5664
42.3521 -97.7352
54.5233 -95.4266
55.5107 -96.7785
50.2706 -88.2899
73.9588 -97.7303
76.8345 -83.5471
80.1133 -92.1355
63.9333 -79.4611
91.9096 91.2326
77.1061 98.2424
82.1027 -93.4846
90.5509 -88.2294
86.2638 -79.9011
86.001 -83.432
-97.8738 -86.3877
81.1759 -92.4349
89.1178 -84.1045
86.4613 -98.8487
94.278 -97.3648
98.2202 96.0228
-88.5569 -93.4398
-88.0808 -90.8061
-72.6593 -90.9895
-90.0649 -83.5737
96.9379 97.363
-70.6169 -91.1037
-82.7045 92.6996
-69.8383 -81.4537
-68.2328 -82.9506
-80.8732 -87.7377
98.3049 97.7693
-72.9428 -81.8601
-73.4538 -98.9754
-77.5154 93.1485
-61.4289 -84.7928
-62.7122 -90.4909
-63.9736 86.8099
-70.7351 97.5192
-58.2175 -92.1043
-57.6179 -87.8724
-64.11 -82.0084
-67.1623 -77.1744
-68.1354 -76.5338
-52.9489 -83.7768
-59.0572 96.1574
-33.4917 89.2292
-43.6903 -95.6873
-41.0645 97.9153
-43.4955 94.3665
-44.2045 -96.8847
-53.9259 -92.0633
-40.0879 -97.7432
-50.9445 -96.9008
-40.733 -88.3511
-17.09 96.0304
-24.0054 -96.4532
-29.6715 -87.6159
-29.447 -72.6586
-21.4743 -87.9663
-24.1742 98.8667
-25.2082 -85.8704
-19.6445 -87.345
0.858922 92.8343
-21.2974 -94.7567
-9.5294 -96.7648
-2.36407 -84.8061
3.77101 97.2041
-6.65115 98.7599
-7.04729 97.4594
13.9987 -95.2919
11.3911 -92.8149
7.66084 -90.25
17.6509 -81.3504
8.68489 94.6469
13.9016 -97.2589
11.1557 -95.6938
26.2218 -87.3059
34.9753 -86.2748
13.7328 -82.3891
33.057 -98.2233
19.0945 -90.9466
16.7593 -83.9207
29.2346 -80.837
20.611 93.6318
26.1556 -81.5535
28.8889 -89.8924
48.6349 -86.4582
34.907 93.5224
23.783 -88.2573
30.1545 -95.3855
47.1795 -79.9217
33.8589 -92.0201
49.8802 -97.0073
36.4111 96.0064
49.7068 95.4262
44.8317 -85.9313
59.2214 -78.2033
63.2279 -84.4546
64.7663 98.9411
66.6903 -91.574
50.2526 97.7241
86.3076 -95.2665
81.5072 -80.3866
71.8934 85.2401
73.897 -86.3526
74.1381 -92.4091
69.1676 97.5873
71.018 -85
77.2783 -80.7206
86.758 96.8862
83.6311 -95.4806
72.6162 -88.4413
71.0103 -83.4451
94.6909 -77.7479
-98.1651 -76.9788
97.7352 -87.2698
-95.9388 -69.7494
-90.9559 -94.3066
-92.5046 -86.2483
94.5561 -87.7828
98.224 -89.552
-97.7558 -96.2143
-84.649 -86.6386
-88.5492 97.9059
-97.4307 -83.9727
-84.0919 92.3076
-66.312 96.627
-74.0906 -67.0682
-72.601 94.3826
-81.7908 -97.1315
-71.6778 -97.0759
-71.56 -72.536
-86.9478 86.874
-66.5715 92.7261
-60.5072 -82.4838
-85.2296 -88.895
-74.9123 -85.1875
-51.6305 -95.9983
-65.8104 -82.7886
-60.0223 -73.9272
-65.4856 -70.1203
-64.1904 -89.327
-56.8532 -90.6148
-43.1388 -96.6666
-60.3443 -84.651
-51.0483 -89.1016
-46.3779 -84.5154
-61.2633 -98.0305
-49.9004 -86.3695
-43.564 93.0253
-38.0367 -82.9357
-41.0292 -84.9601
-36.5559 -82.0985
-41.3235 -79.4778
-34.3924 97.0405
-27.4408 -77.795
-26.5092 -96.4235
-24.7107 -77.4078
-19.5701 -85.5304
-21.2448 -83.0443
-9.60019 -87.4955
-10.6366 -84.5933
-6.49174 -75.7537
-19.4178 -90.7575
-9.22402 -94.6988
-5.86826 -77.8791
-12.5866 -90.8829
-0.898019 -92.0849
6.9305 -89.1271
-12.2433 -95.4025
-8.31921 -91.9797
-19.833 -76.3058
-1.01299 98.1202
5.79995 96.8789
0.60391 -69.783
-4.15537 93.3857
14.7882 -94.4489
7.40239 -98.803
17.5156 -98.094
31.853 -82.8402
13.9875 -98.4115
29.5278 -77.8014
14.6416 -78.9822
23.1962 -96.8262
27.3853 -81.0135
25.6585 -83.9045
41.3118 -82.1061
21.4259 86.5058
24.7944 -90.1941
43.2856 -68.1313
38.7176 92.4977
48.1923 92.0763
38.3116 -86.3378
65.5561 -91.8175
53.0382 98.6079
51.7107 -78.1556
63.2161 -92.7787
57.06 96.1502
38.9201 -95.9103
52.8383 -92.0335
49.5901 -93.5885
48.0675 -82.1206
61.6422 98.9193
70.9172 -94.2675
66.9253 -94.7748
76.4164 -92.3924
70.8375 -98.5452
81.9129 -83.7634
75.1141 97.2984
77.1104 -91.1193
77.7958 -94.7982
-96.6833 -97.5992
84.5924 -91.6405
94.5468 -98.8127
-90.856 -97.6274
84.4229 -80.1829
91.5585 -95.0161
-96.0589 -75.5787
-95.1736 -95.5761
-94.0963 -94.9999
-96.4655 -86.6721
-98.3087 -90.8931
-91.9252 -72.0706
-70.2543 -73.3325
-91.3951 -93.0424
-74.6772 -95.0217
-77.0344 -90.5497
-78.7421 -91.9156
-74.4654 -96.4353
-93.1906 96.6885
-88.1227 -79.702
-70.0086 -89.6719
-73.3066 -92.5136
-68.4117 -95.6474
-73.3416 -89.6886
-52.233 -87.9206
-59.5268 -92.3972
-68.917 -79.0711
-55.1736 -84.9785
-41.7611 -95.0465
-57.8192 -90.9053
-47.0222 -86.0282
-55.5141 -92.7296
-61.7062 -92.2425
-56.863 -86.9349
-57.2245 -92.4128
-41.5031 88.7306
-53.8133 -90.8067
-53.1637 -82.0155
-32.7692 -78.9495
-40.2641 94.5875
-31.8673 -83.302
-43.3285 -75.9
-33.9048 -94.5032
-36.3705 -80.9079
-38.4915 -98.8874
-38.8461 96.0164
-3.75815 97.1404
-10.8142 -87.8377
-21.7215 -86.4115
-31.6879 -92.1375
-43.7988 -86.944
-23.716 -87.5635
-3.84209 -85.0635
-7.52982 -77.6696
7.12013 -91.6389
-1.50954 -97.0193
-11.2611 96.4354
-18.7975 -93.6523
-5.1036 -89.8694
3.27468 -82.6868
1.41119 -88.4087
18.767 -75.9368
3.10787 -76.4011
6.28474 -76.8796
17.1543 -90.6594
19.8676 -84.4839
8.47299 -84.5674
20.073 -68.6951
13.9614 -86.6611
18.6467 -91.9316
26.7101 -91.9041
13.2135 -77.2049
35.2585 -84.5395
21.7993 -84.8207
21.4286 -75.6452
31.6551 -72.432
28.5031 -82.6642
23.5992 -84.9719
37.61 98.6727
44.0795 -88.1314
33.8512 98.3301
55.0279 98.5001
55.2648 -88.3669
45.7605 -90.5946
59.6919 -96.8014
57.3795 -90.1051
43.6888 -72.2117
67.9919 -95.33
53.9399 -96.7581
47.865 -94.6033
57.4755 -95.0642
50.6187 -86.2111
73.0035 -90.1611
77.4817 -88.4239
84.7023 -86.2763
88.7519 -95.9823
75.559 -83.6523
78.2792 -89.892
80.1785 -88.2588
82.4474 -88.8354
90.1281 -95.4082
91.389 98.5675
81.9939 -86.0162
94.5043 -75.8935
-96.1781 -83.3368
98.7456 -84.3341
-92.9 -74.8454
95.5625 -72.806
90.1077 -82.7707
90.6644 -72.8514
-78.58 -95.0675
-94.9971 -97.3496
-85.4187 -97.9314
-94.3892 -84.8089
-90.3502 -90.8061
-75.6981 -95.7608
-85.1827 -91.4402
-78.1807 96.2857
-72.6468 -87.7789
-62.6763 -93.867
-73.3844 -87.0721
-53.5858 -97.3734
-79.0503 -93.4588
-51.9836 -89.5829
-73.7844 76.9369
-71.9232 -89.1483
-74.2343 -69.1404
-63.9092 -65.1723
-67.2792 -69.9588
-61.5177 -80.0212
-65.4687 -89.6966
-38.7153 -93.6549
-46.5924 86.3737
-63.206 -91.941
-60.8316 -93.4548
-51.3803 -92.8215
-42.8908 97.6229
-48.7293 -87.3371
-48.0472 -94.282
-44.3189 98.6081
-43.9223 -93.1628
-38.2052 -77.2672
-34.4528 -78.2085
-43.7878 -84.9953
-47.1979 -80.4204
-20.4691 -87.969
-16.0785 -91.4582
-14.8152 -98.5904
-7.92615 -79.9828
-5.49147 97.586
-11.4886 -90.1178
-16.7694 -75.6937
-24.2223 -83.0489
-8.74881 -82.865
-14.5883 -89.2062
-7.46133 -87.2356
-3.87528 -79.4996
5.81521 -84.6279
-15.7496 -74.8868
2.7497 -78.2493
6.93231 -62.4498
12.7456 -83.103
-3.27944 -76.3301
-8.20926 -81.703
5.7442 -86.5916
13.3306 -62.0254
10.3364 -90.2375
22.9061 -83.3918
25.1038 -75.2085
26.8957 -74.3906
21.9566 -68.3985
16.8763 -69.0614
19.7304 -78.1544
24.4296 -95.2688
37.5819 -87.101
16.7855 -78.1536
48.3074 -97.8516
42.9403 -77.2181
40.9083 -96.7123
44.0421 -85.1465
35.9806 -73.0833
36.6311 -86.2224
31.0845 -87.4279
49.3583 -98.0737
47.4614 98.823
52.4214 -98.4227
56.2912 -90.423
47.384 -96.2152
49.3292 -90.9008
50.2414 -79.2797
61.75 -87.4853
62.3467 -83.6696
57.4498 -84.4246
88.9437 -78.7695
73.9493 -95.7167
78.8191 -90.9657
92.6646 -79.3403
70.1522 -74.1595
90.2006 -85.2169
88.3308 -93.1334
88.9226 -90.6899
75.6681 -74.5854
84.9322 -96.5406
98.4119 -75.7548
85.3798 -78.494
88.5253 -80.0279
-94.8889 -73.7486
87.6697 -79.2044
-96.9727 -76.1058
-95.7813 -87.7523
-86.6661 -87.7808
95.6775 -79.7318
-83.8092 -63.5873
-89.7877 -72.0047
-89.0014 -90.2588
-87.3526 -86.5203
-79.1786 -80.8794
-76.7822 95.7663
-79.9828 -81.4847
-86.4183 -91.3347
-70.8351 -82.5082
-70.1486 -87.7491
-63.6673 -81.1135
-77.7761 -88.8499
-72.6177 -75.4667
-69.5879 -74.1941
-65.1831 -93.0577
-71.6938 -90.5462
-54.1713 -86.6015
-63.2638 -63.4096
-56.6718 -77.6931
-46.3387 -82.9048
-45.6331 -88.506
-65.1278 -80.7209
-42.8417 -98.9207
-41.6383 -83.275
-39.1981 -90.0995
-42.1816 94.235
-56.0247 -81.1285
-49.8189 -89.2455
-35.7898 -93.795
-56.1396 -76.2133
-40.1665 -83.5381
-30.0254 -83.6285
-28.901 -75.0788
-32.1528 -71.4401
-31.6293 -86.9965
-16.0792 -98.7471
-11.6449 -84.2827
-7.46728 -94.4633
-18.761 -68.846
-15.9115 -70.3344
-23.1791 -79.7162
-10.2969 -98.345
15.4606 -75.108
-19.4242 -67.3688
1.21537 -84.3916
3.65116 -73.9907
9.42349 -93.2447
3.93726 -84.423
-0.748307 -83.3534
-4.8657 -91.3228
5.48758 -90.8823
15.953 -86.2983
-2.32031 -83.5824
-8.09697 -69.3168
26.883 -89.6787
7.29737 -85.7546
7.60699 -73.7239
8.47397 -72.5472
14.1616 -75.0891
27.6833 -77.7019
34.3995 -83.8387
17.8687 -93.1192
39.8184 -84.1933
31.8375 -80.6066
29.5407 -85.0962
37.2652 -71.9669
35.0935 -69.4432
30.9787 -74.3606
45.3634 -95.1887
34.379 -93.2297
58.8271 98.4976
38.0313 -95.4555
40.5272 -88.9242
52.6454 -80.2463
55.3711 -81.6164
38.66 -92.475
59.8187 -77.055
62.743 -80.03
78.807 -84.178
67.1138 -81.5751
72.3524 -95.1963
69.3226 -98.0464
63.4298 -81.9561
74.0729 -87.3656
84.141 -67.0846
74.3961 -73.0522
94.4557 -72.1429
75.9525 -95.5571
89.0699 -71.5488
78.4166 -80.3925
92.1344 -88.8819
90.0895 -92.0056
-94.1608 -82.864
92.0776 -80.1523
91.887 -82.6134
-92.7022 -62.9882
-85.4505 -93.2965
-81.7097 -94.8125
-90.4236 -85.9899
-93.5498 -87.5445
-80.9578 -95.4698
-84.5848 -80.3553
-89.3642 -87.3211
-83.0299 -79.4455
-86.4071 -65.2271
-75.562 -69.3671
-86.3627 -81.0928
-81.6291 -74.0678
-76.6309 -75.3354
-74.86 -83.2503
-63.7545 -71.0655
-66.6874 -87.2137
-66.1961 -75.1981
-63.3892 -78.7697
-65.3587 -86.5661
-62.5841 -67.9804
-47.0124 -69.1872
-58.8287 -72.2132
-56.3012 -79.9708
-33.8436 -82.0219
-51.3841 97.9036
-42.2337 91.5661
-49.0996 -82.7405
-54.9967 -87.998
-64.4987 -76.9311
-42.6402 -73.031
-34.9903 -95.6656
-52.1676 95.2648
-34.5798 -56.8686
-32.6729 -93.1203
-34.704 -98.8
-27.7151 -84.3001
-32.7354 -87.1509
-30.7004 -86.174
-29.8534 -95.4225
-10.5427 -88.923
-20.2191 -81.4799
-23.6298 -73.0801
-28.9807 -80.5751
-27.4935 -79.1601
-17.8425 -82.8262
-1.65454 -88.2298
-24.143 -79.4442
-2.42174 -87.2475
-24.2126 -88.7704
-7.46747 -62.0128
-5.07441 -76.208
-8.5711 -73.0083
3.61541 -81.7446
6.45613 -79.2909
3.67226 -91.0672
-0.0901863 -68.164
19.5932 -73.6118
5.1427 -79.7314
15.4998 -97.8998
26.519 -80.1401
30.5835 -63.8643
11.5278 -89.5677
35.3044 -77.9033
11.7027 -70.9238
25.3889 -92.3518
35.714 -71.7292
21.0064 -83.2785
21.8896 -69.5529
27.7736 -85.2237
37.6313 -69.1652
37.8511 -83.1268
50.0448 -92.5802
45.7915 -87.1499
53.7988 -80.1678
22.7964 -95.8082
38.9202 -70.2291
57.7555 -86.2213
59.2542 -80.5679
71.6047 -68.5247
57.4983 -88.304
43.7056 -81.6347
56.5895 -68.7249
58.6891 -93.6653
53.1742 -83.6396
70.6451 -76.9733
67.3363 -87.9013
64.8071 -89.1256
77.2077 -85.4721
63.8102 -88.6323
88.5778 -82.3145
72.3056 -75.6616
90.5288 -54.9725
94.1256 -64.3541
86.4076 -77.831
89.4054 -81.7245
71.9003 -77.4864
92.4649 -83.546
-96.1464 -80.1031
91.1499 -76.2834
-98.9204 -82.0403
97.4022 -82.2165
-86.4346 -92.6023
-92.8243 -88.6023
-95.8949 96.9079
-84.6012 -64.223
-72.1131 -84.1901
-84.8182 98.9596
-77.0658 -88.0641
-74.7718 -74.8239
-89.3441 97.1143
-82.8688 -83.7085
-68.3888 -78.0535
-76.6274 -77.0633
-74.6839 -91.9202
-85.0235 -75.1395
-70.5341 -74.8156
-71.112 -77.8357
-67.3088 -71.9547
-40.9676 -63.9749
-80.4379 -75.1244
-68.2428 -84.4831
-72.2376 -67.8621
-64.8603 -62.2655
-53.3585 -72.5356
-54.3982 -82.7178
-25.9825 -70.1278
-45.3647 -91.6772
-32.7831 -68.9713
-38.4614 -63.4773
-54.7465 -78.4042
-50.7307 -82.1352
-39.1876 -77.0192
-44.8782 -96.097
-33.981 -68.6902
-38.1558 -70.923
-39.0449 -73.0517
-36.3413 -67.3913
-16.3887 -87.204
-28.3143 -88.285
-34.0673 -83.2157
-13.8514 -77.5934
-29.1691 -82.6339
-47.3871 -68.1281
-23.0455 -74.8966
-22.0316 -75.8312
-0.386837 -78.6801
-13.2315 -93.9924
-0.63627 -82.3135
-8.8372 -84.6894
-8.41807 -87.5516
13.1741 -88.4805
-4.9565 -71.0433
8.34574 -67.3611
5.94076 -71.6896
12.1983 -74.7513
9.71076 -81.1267
11.6607 -87.4453
4.33427 -82.7142
19.7233 -63.3539
17.0805 -96.6263
26.6783 -85.9741
8.86978 -79.1276
25.3127 -82.242
24.7313 -76.6968
19.2918 -74.6386
13.6758 -72.817
25.1265 -61.9537
22.0977 -82.7906
38.4776 -71.1708
28.6978 -86.149
25.5056 -78.0272
43.0925 -79.8713
46.8747 -68.8408
51.5644 -75.4038
54.0302 -85.8361
52.6617 -84.5098
51.1174 -81.8973
72.953 -55.9822
60.7916 -73.5851
53.3847 -81.7204
61.5019 -80.1178
42.7352 -95.4695
48.012 -77.8855
59.432 -89.843
72.715 -80.9692
56.7463 -86.4791
67.6658 -83.275
82.0371 -77.164
80.3538 -94.0076
82.8279 -80.0445
77.0806 -79.7404
82.0183 -69.0717
86.5957 -75.5273
86.1674 -84.8687
90.8432 -77.5611
94.2422 -79.7097
-92.4171 -73.1144
-88.9678 -74.5708
-92.5189 -90.2418
-96.5 -73.5315
-98.8641 -74.9217
-93.7087 -57.4188
-98.076 -65.5844
-94.3321 -80.9607
-95.4504 -71.4236
93.8827 -82.5556
-87.112 -76.7446
-85.1236 -81.2789
-77.532 -86.237
-95.8864 -68.4052
-86.6191 -89.6055
-63.5381 -88.3184
-72.8161 -72.4889
-68.5356 -59.4853
-77.8584 -69.3495
-73.8066 -72.0064
-61.3894 -89.6773
-72.092 -69.8503
-61.9113 -59.3236
-62.9892 -60.6186
-69.8029 -66.2979
-62.7155 -77.2501
-59.447 -95.2438
-58.0439 -97.6602
-46.521 -65.2429
-49.6372 -78.0585
-52.1279 -84.6826
-58.6803 -70.7686
-47.1229 -96.7244
-50.9283 -72.8992
-50.6854 -74.3944
-43.6888 -88.4648
-36.4995 -73.5991
-37.3355 -72.0682
-24.4436 -71.4541
-30.0652 -81.5029
-25.5721 -75.1311
-35.0947 -94.634
-8.20285 -88.5968
-12.6247 -83.3614
-19.5727 -79.8431
-44.7246 -73.7215
-23.2357 -86.1649
-20.7219 -80.3324
-16.3924 -73.7598
-25.9278 -71.6731
-7.39966 -70.0999
-8.02716 -74.5826
-2.73319 -95.3527
-14.091 -81.636
11.3764 -68.3582
5.95124 -62.2521
14.4544 -71.0789
25.0628 -69.999
9.57354 -70.0566
3.26651 -64.9396
-0.298627 -64.4153
7.22685 -75.4544
9.61823 -88.7595
18.2232 -80.3199
12.8885 -86.5162
9.60396 -74.8714
21.955 -72.7668
20.1523 -75.3418
30.2848 -73.552
22.8153 -79.5451
41.9724 -75.8572
23.8778 -75.7953
36.7 -79.5164
51.7626 -83.7618
27.5805 -71.2675
39.0562 -78.8913
35.0484 -79.1386
48.8771 -70.9425
29.5211 -81.8668
46.6884 -85.1427
45.4977 -80.7929
57.4528 -69.5272
42.0456 -78.4429
42.8864 -91.2944
74.5493 -88.848
60.5209 -67.7043
58.9605 -82.4172
63.9358 -80.9206
61.8391 -96.3193
57.6483 -82.5796
73.9434 -84.2812
83.6185 -54.5773
57.7763 -96.7526
60.2906 -81.8387
61.046 -75.0123
77.086 -78.6745
-98.0185 -59.4836
88.0913 -83.8264
-97.5723 -57.9185
98.8179 -77.4002
94.3499 -84.6238
91.4417 -71.365
96.5061 -64.1351
-96.2224 -91.9199
92.0606 -56.4959
-90.1277 -81.0371
-84.252 -77.5277
-86.5131 -69.0275
-73.8511 -88.5647
-86.0931 -72.3038
-83.4583 -96.2133
-94.7013 -69.9976
-76.842 -84.5781
-71.0908 -79.3944
-74.4335 -81.1735
-72.5278 -66.1892
-67.6645 -80.4792
-66.69 -95.1404
-75.7465 -81.3996
-60.3219 -74.9472
-79.3367 -74.3946
-71.6782 -80.7338
-48.9246 -67.4559
-64.2446 -66.96
-68.167 -68.9382
-46.191 -74.7438
-59.6415 -77.4521
-63.0834 -79.8178
-57.9963 -81.3059
-54.1466 -71.8385
-58.4567 -86.6647
-39.2638 -68.0927
-34.8689 -67.9646
-33.2899 -71.6104
-48.8579 -73.9582
-44.7161 -83.4439
-35.1309 -49.1653
-31.9746 -73.3553
-28.5878 -78.4408
-31.7782 -54.5142
-31.8054 -76.3806
-45.6782 -80.414
-41.6274 -69.3428
-47.1528 -88.1123
-7.13329 -84.2467
-26.3981 -94.0942
-23.2576 -60.084
-40.1888 -51.0275
-35.0261 -70.5541
-11.8507 -73.285
-16.5036 -82.0386
-1.98977 -76.639
-0.734897 -71.3156
11.3427 -75.3065
15.2714 -67.7496
16.0573 -89.5828
-12.7792 -72.8809
6.74909 -63.5237
3.50484 -70.6285
0.942538 -78.8463
8.91799 -69.0843
26.1931 -61.5577
23.2464 -78.2203
8.20011 -76.6578
9.63395 -72.2331
25.7456 -70.873
16.1278 -77.0291
35.4664 -55.4111
27.3997 -61.525
23.0024 -72.6794
40.1743 -58.5204
13.4042 -63.4849
41.6148 -66.695
37.9626 -85.2707
47.3315 -86.0095
41.93 -89.9483
36.9528 -83.7744
51.1577 -93.9267
28.5424 -88.1066
54.5923 -72.7454
51.0118 -76.455
48.3011 -74.9879
52.846 -78.4981
56.0728 -64.5648
65.4028 -70.5386
62.9239 -91.7931
68.9187 -84.2346
64.52 -83.474
54.1502 -92.6306
52.0227 -91.3351
89.3122 -75.3963
85.4249 -90.2238
65.6298 -86.4226
63.2352 -90.3161
74.8639 -82.887
68.6634 -74.1102
89.72 -74.145
-91.0929 -79.244
73.4743 -78.7459
-98.151 -75.9013
-93.1087 -67.9316
-98.5991 -72.6351
-80.7022 -94.3442
-90.3855 -69.8503
-93.24 -61.438
97.8421 -55.6955
-95.8596 -85.4225
-89.4743 -84.5881
-83.6016 -71.207
-89.0633 -81.3978
-97.0386 -81.1644
-95.6935 -82.1442
-73.7793 -82.8628
-80.2762 -73.8955
-75.5691 -87.1482
-76.9621 -64.505
-87.2305 -88.6353
-50.7969 -94.5181
-79.9898 -85.0381
-73.4673 -74.625
-80.7898 -80.41
-83.4767 -81.1717
-62.1511 -74.2467
-56.4922 -83.5014
-62.5018 -75.9874
-60.3969 -70.2169
-57.4551 -79.0189
-51.1398 -76.2965
-64.4895 -78.6824
-43.015 -81.8984
-33.2219 -84.034
-43.9073 -61.6378
-42.4103 -76.8581
-48.4172 -61.9044
-43.4839 -80.9009
-47.4371 -77.9305
-31.0435 -70.3225
-39.1488 -56.0194
-40.1529 -55.3288
-29.8061 -61.3814
-24.6316 -89.8682
-8.39235 98.0486
-34.9526 -82.1227
-24.458 -52.0513
-25.3277 -76.595
-33.9834 -75.5785
-31.3453 -89.4741
-28.8218 -69.6437
-14.7152 -88.2106
-4.33774 -88.3188
7.6144 -71.9775
-8.48884 -64.8989
-13.5647 -80.3396
4.75699 -74.8168
5.1023 -81.5502
-6.20685 -72.5145
5.66352 -88.5233
-15.5794 -78.9276
1.12505 -66.8603
-9.98404 -57.3676
6.72685 -82.3974
19.1499 -70.501
8.69045 -87.7416
12.7868 -75.9081
28.919 -70.7116
18.607 -77.0122
20.4286 -64.3249
27.7937 -75.2316
20.8505 -86.83
29.0275 -73.3679
36.2958 -66.1606
26.7095 -75.5619
34.2528 -56.2237
41.9883 -84.5171
27.9955 -58.7712
33.4595 -65.6331
30.7166 -85.6915
67.1725 -71.1061
48.3232 -91.147
36.8416 -76.0355
55.476 -76.3325
52.5145 -73.488
56.4752 -77.0019
45.7487 -77.228
65.5594 -72.5854
62.8044 -68.858
73.3723 -82.8888
58.0758 -73.826
69.0555 -80.8899
59.8291 -68.7766
80.2909 -60.4128
63.3359 -83.0593
81.5006 -86.8916
66.5617 -84.5412
81.4211 -78.4032
79.2837 -81.6633
93.1426 -77.6502
93.5492 -54.9713
89.718 -60.9643
82.8144 -78.5344
84.2889 -71.8235
76.4846 -68.4671
93.603 -86.0045
-97.0278 -68.6911
98.8756 -69.3392
-87.2864 -64.3594
-84.6931 -72.8651
-90.6012 -61.4626
-95.2082 -62.6848
-78.0981 -80.8145
-85.8236 -85.9035
-95.5295 -61.6201
-87.1486 -71.5159
-83.4943 -52.9105
-96.8171 -87.6924
-76.7222 -86.898
-67.7941 -82.055
-84.591 -82.8336
-79.7194 -86.3344
-65.9985 -66.9407
-55.1697 -68.8313
-48.9444 -71.6133
-61.6593 -68.6181
-72.2966 -61.2138
-69.1416 -69.486
-51.7076 -74.928
-45.8118 -95.4082
-53.3021 -63.5322
-49.1177 -70.4538
-58.3499 -58.3631
-58.2057 -84.2165
-39.1508 -85.9825
-42.316 -74.8759
-42.5762 -86.2084
-34.9741 -59.3887
-33.6613 -59.6981
-56.5268 -71.2435
-34.8137 -72.5119
-37.2077 -66.6724
-39.627 -64.8738
-34.4994 -81.1768
-27.1247 -58.5609
-28.4759 -76.9517
-15.4322 -95.7103
-27.1679 -74.7171
-15.3208 -73.4911
-39.3693 -81.4221
-16.7581 -66.2832
-34.6092 -87.8598
-16.9813 -70.1121
-5.08925 -65.167
3.27925 -92.4616
-3.30404 -64.6301
10.5644 -71.3259
10.3626 -79.7554
8.4384 -71.4219
-2.23747 -77.6692
7.30521 -84.2763
-10.1705 -48.0749
8.58836 -66.1531
11.8697 -65.7134
8.39672 -63.9988
13.0636 -71.828
3.7569 -61.4537
33.2371 -69.3344
7.15285 -66.5621
28.6458 -61.1921
2.42988 -66.1216
44.0902 -79.4347
30.2266 -60.9027
48.5932 -73.9255
14.84 -69.0022
57.0484 -71.8176
44.7463 -63.2395
27.7388 -73.8238
41.0145 -76.8906
47.3741 -74.2431
45.0639 -65.2792
34.5696 -66.57
52.9212 -76.9552
61.9131 -63.9981
64.0533 -75.7577
55.3149 -79.3596
67.3098 -66.9563
59.5985 -83.8351
78.4985 -68.5233
48.7497 -88.8924
57.6764 -66.2645
59.8659 -74.527
60.2655 -84.8514
72.4505 -78.6302
68.7085 -82.8135
49.7634 -85.7005
95.7878 -67.2494
76.3799 -67.3162
89.8704 -77.2226
-96.9891 -74.9317
91.122 -69.4763
76.8601 -74.444
86.9461 -89.4474
-94.3078 -78.1373
-90.8578 -75.0564
-85.2503 -62.1067
-92.456 -64.3856
97.727 -78.7849
-92.9491 -66.0719
-89.7253 -82.1462
-97.1325 -62.3728
-70.9168 -66.4513
-86.4711 -70.5366
-81.897 -70.3557
-93.2589 -73.8362
-84.7108 -68.6084
-68.4734 -67.5504
-81.6866 -78.0479
-72.0734 -82.7628
-72.5397 -77.4524
-75.5099 -58.8824
-76.8108 -63.4596
-77.1148 -78.3192
-77.4768 -61.0746
-62.2029 -64.8418
-69.7436 -59.7183
-65.2845 -49.6959
-61.2134 -67.112
-69.5885 -68.2689
-64.2594 -68.3193
-45.219 -69.3998
-53.24 -74.5335
-30.2171 -60.1666
-53.2991 -79.4383
-43.7248 -65.3194
-47.8736 -75.4911
-34.6769 -47.796
-49.5357 -69.0384
-43.5008 -91.5835
-36.389 -48.6085
-38.7023 -69.7754
-22.8337 -64.0217
-29.2639 -39.9065
-15.6254 -64.6501
-28.7201 -61.6496
-36.9151 -83.942
-14.5709 -64.4222
-30.1325 -74.4413
-30.8376 -77.773
-31.66 -62.3125
-28.6513 -71.031
-12.8446 -70.3576
-21.4179 -68.2382
-6.36138 -73.8548
-3.45914 -80.922
-26.079 -80.4462
-6.60429 -80.9026
4.66074 -70.6462
-13.8261 -60.2448
2.88882 -79.2773
-0.371588 -61.8103
-7.29198 -73.3831
13.6563 -78.5459
15.8986 -56.9631
3.79325 -63.064
20.9695 -45.5536
-2.18199 -67.4628
20.1792 -66.7611
14.3621 -50.4221
42.7914 -61.9294
24.9196 -72.0477
34.2905 -60.8308
12.9613 -59.5664
23.8221 -63.5818
41.055 -72.115
41.0256 -65.7992
46.9238 -75.3109
36.0602 -80.6369
58.7032 -69.1265
43.6657 -66.9184
50.0214 -68.2469
36.9287 -67.9803
58.1618 -79.5003
41.9816 -64.6073
67.7834 -66.0688
53.8692 -71.2131
64.3676 -59.682
66.9983 -72.7585
55.025 -64.1129
65.6631 -80.3213
61.8136 -54.9468
66.5269 -77.7949
60.5739 -64.482
70.9887 -72.0153
88.7927 -87.5811
64.6755 -68.5324
64.3134 -77.8945
75.6752 -70.4546
90.0495 -78.893
82.3921 -81.2288
96.4929 -71.7162
92.0303 -72.8128
92.6017 -60.0432
98.76 -71.0554
-94.0544 -67.3931
92.1083 -77.0288
-95.9083 -72.6454
-88.289 -77.7544
-88.0021 -66.792
-94.7485 -76.9397
-91.1152 -77.6016
-89.327 -88.9174
-84.8809 -47.2336
-90.5084 -65.1984
-69.9994 -80.2606
-87.8919 -81.5172
-71.4399 -64.3887
-73.6264 -76.892
-76.9283 -66.2662
-81.3409 -54.9713
-60.1948 -65.4311
-73.7278 -78.1459
-69.8463 -62.3428
-67.5574 -66.629
-64.838 -88.2204
-48.0161 -71.1004
-63.9147 -72.8279
-49.9262 -66.2137
-45.0062 -86.0424
-62.275 -54.5425
-46.2055 -81.7515
-54.5792 -64.4496
-58.2313 -59.6124
-52.398 -68.9539
-69.7191 -76.9281
-21.5411 -72.542
-47.2509 -60.0197
-44.5964 -68.6167
-33.7407 -46.9374
-24.6878 -57.5609
-37.3901 -56.2762
-33.2413 -52.0128
-35.8452 -61.5748
-25.7505 -67.0717
-25.3226 -73.6502
-23.5766 -78.4121
-18.3479 -59.4797
-20.4624 -74.383
-15.8545 -67.6613
-40.5493 -69.3067
-11.2801 -61.1264
-12.0745 -74.6555
-8.10322 -71.9237
-7.40381 -82.8659
-3.77327 -93.2587
-1.20054 -75.979
-12.899 -84.9235
2.41926 -70.048
-5.02855 -69.6558
-17.961 -74.7365
7.29421 -37.6395
2.96797 -63.9196
1.64976 -53.263
0.608971 -57.8208
0.227355 -56.4317
14.542 -65.1338
-7.03871 -55.5048
8.40705 -78.2119
6.64137 -67.459
26.0811 -63.6587
31.1337 -70.5786
41.8697 -68.4501
38.9329 -73.8267
45.8169 -67.2489
43.9963 -58.712
48.7405 -72.6546
32.2547 -73.2315
33.2771 -66.7308
42.62 -66.1955
36.587 -70.7486
49.4622 -69.4719
54.539 -78.4282
39.7877 -76.7129
58.1019 -76.0599
58.0499 -48.4822
51.1712 -56.9263
69.422 -73.2634
52.4361 -52.157
77.3648 -67.7064
55.7389 -78.1021
78.8509 -59.6448
64.167 -69.8065
73.7312 -81.1858
67.2048 -64.8318
89.0873 -70.1835
79.4276 -80.4576
83.4303 -68.0938
67.4369 -90.5019
79.554 -67.4508
80.1469 -56.5213
72.8502 -54.6593
68.8226 -71.6144
80.458 -77.7524
93.7389 -71.2343
-91.1838 -76.3611
93.4255 -67.6871
96.3768 -68.4336
96.9676 -76.9636
-96.8591 -58.9575
-89.5401 -76.1534
-91.0248 -67.861
-83.4291 -69.9654
-91.1541 -60.1907
-96.2052 -78.5046
-89.1177 -68.2065
-72.7877 -65.0077
-76.7059 -67.6816
-63.1064 96.5763
-78.8127 -61.6046
-71.0728 -61.7681
-58.5459 -47.2184
-77.4179 -55.3006
-66.0744 -45.4515
-73.0309 -69.3792
-56.7803 -73.049
-63.0731 -58.2716
-72.0449 -62.3643
-62.3257 -61.8856
-51.7144 -80.1338
-56.5564 -65.7693
-46.2301 -76.0774
-34.7764 -60.9111
-32.6876 -50.484
-51.5067 -67.6877
-42.4762 -78.471
-58.5745 -66.5275
-29.6443 -70.3057
-37.5449 -59.3903
-37.9038 -73.0784
-42.6696 -56.1803
-38.3563 -53.5376