ITEM: TIMESTEP
50100
ITEM: NUMBER OF ATOMS
10000
ITEM: BOX BOUNDS pp pp pp
-5.7205700000000000e+01 5.7205700000000000e+01
-5.7205700000000000e+01 5.7205700000000000e+01
-1.1441100000000000e+01 1.1441100000000000e+01
ITEM: ATOMS x y
-50.5798 46.066
-48.1527 46.1872
-54.2439 57.1436
54.5375 -55.386
-52.5844 53.6457
-48.8436 55.0936
-43.6268 -52.1332
-47.346 -56.438
-37.3888 -54.9745
-35.0548 -50.6499
-32.6961 -46.3144
-36.0663 -55.0299
-36.0286 -56.6724
-34.3434 55.4959
-34.6058 -55.9655
-27.2053 -42.5788
-24.4737 -45.7833
-28.0479 54.7959
-35.411 56.2221
-29.2114 54.0653
-27.7517 56.8374
-25.7614 -53.862
-30.8015 51.9938
-27.1984 -56.7362
-19.459 54.3627
-17.7462 -55.4377
-17.7016 -56.7998
-22.2321 55.8901
-20.9969 -48.811
-14.245 -49.4961
-12.2233 55.5341
-8.35684 52.8707
-16.0961 54.4942
-5.63565 56.509
-7.80108 -48.6398
-6.51612 -55.5752
-5.78649 -53.4476
0.106658 -51.2155
-3.03916 -52.1218
8.24779 -52.178
-0.0531824 -54.3179
-1.7358 -51.6312
-2.78715 -46.1331
-0.521439 -42.9378
6.19657 -43.4208
1.67802 -54.7057
5.34787 56.2971
7.1649 -55.4348
7.67042 51.1501
10.2965 -56.3008
2.6385 -49.4148
10.9901 -53.0605
-0.504449 -41.942
13.0995 -56.9299
3.90074 -55.5701
22.4567 57.0226
17.7714 55.5659
12.7459 -52.2804
20.4176 54.3771
17.9781 54.3965
26.6165 -53.6222
26.7802 -55.418
11.6858 -48.4793
13.1146 -51.1343
26.4806 56.8232
29.5475 51.9427
31.9569 48.4516
28.6567 47.0195
29.5538 54.2718
32.2255 55.4184
26.2805 55.65
30.0883 -55.77
32.695 54.0454
33.4257 -56.9958
31.9987 -57.1373
30.6239 -52.038
41.4108 55.3467
40.126 55.4046
46.241 -54.6428
36.2483 54.1052
36.1293 -56.8111
45.1366 54.5177
47.4042 -54.4929
47.825 53.7859
50.1068 -56.6262
54.7143 51.2681
47.5772 -51.9879
-57.1505 48.8357
51.3927 48.1724
48.3536 45.2233
50.4365 47.5297
49.8194 46.6481
53.1739 44.1443
56.809 53.3562
-55.7322 43.37
-51.6845 48.2986
-53.5993 53.5539
-49.0989 49.6808
-50.8546 56.067
-48.757 48.4955
-55.3694 50.1963
56.6285 55.7828
-49.6892 55.9658
54.6699 52.2998
-54.567 -54.0745
-52.9856 -56.9932
-48.3539 -56.2446
-37.797 -55.9354
-43.7458 -54.0502
-44.8545 -50.9003
-39.6758 -47.2109
-34.688 -54.9503
-27.2992 -47.9222
-35.8317 -49.7288
-27.463 -44.8524
-24.0387 -43.4375
-29.8618 -47.3264
-21.3355 -49.7799
-26.4322 -51.6826
-19.9496 -48.0289
-25.6911 -52.4948
-32.5861 -54.3594
-24.8301 -54.3806
-23.0733 -47.7368
-25.5427 52.9841
-24.5192 53.9305
-24.6475 55.8768
-20.0776 55.634
-18.4926 -51.8609
-11.7915 -55.678
-9.40042 -53.5395
-23.8583 -54.6908
-13.3584 -52.8507
-8.03459 -56.9267
-11.4023 -53.6105
-12.0138 51.8004
1.12546 -51.8065
-0.749831 -55.1116
10.3739 -55.0136
3.35783 -53.5977
2.01609 -55.7808
2.44447 -46.638
-2.7818 -48.5163
1.17673 -49.2242
8.01176 -42.4231
7.36941 -51.5303
3.13185 -41.8413
6.18378 -47.5108
5.52536 -45.9653
6.75887 55.122
12.7311 -54.8962
9.7714 56.6181
13.6994 -55.2065
8.76742 52.9413
10.9696 49.5396
16.7747 55.4384
23.3027 55.1672
17.1542 52.9606
20.3453 -45.8468
21.3573 -50.0906
18.1696 -56.7262
21.2838 -54.2125
16.4455 -57.015
25.5444 -53.5674
19.2006 54.4199
23.3848 56.4073
27.3402 56.0153
33.1752 -51.3453
32.7986 56.544
44.1363 54.0535
34.4353 56.2893
38.1075 -51.3754
30.9722 -55.0275
41.0375 -54.7807
43.2325 56.3647
36.7719 -42.6109
43.8702 -53.9294
40.6416 51.2135
40.225 -50.9101
49.8141 54.6408
45.292 -49.6819
49.257 53.0005
50.2542 55.5562
44.2444 -49.7102
44.9263 52.4327
47.7295 -56.3464
53.1474 47.0065
51.9113 -53.8818
45.6726 -56.3632
47.1737 -49.4358
55.0927 44.201
50.9376 51.7123
55.8854 46.9161
-56.6794 52.7761
54.4639 53.4848
-53.9023 49.8034
-56.2889 44.7289
-53.8653 48.0714
-55.4915 -56.2822
-52.8221 48.3454
-54.4154 47.2392
-54.3572 54.2123
-51.6738 52.9049
-53.111 52.1278
-49.0347 -55.1482
-53.8835 -56.2821
-55.3136 46.6388
-38.246 -49.9371
-45.072 -51.9165
-37.2379 -52.2402
-44.5626 -55.1139
-31.351 -49.3068
-33.934 54.0994
-33.14 -48.3652
-29.6399 -44.0419
-33.1128 -47.3382
-22.2783 -49.4499
-25.8984 -46.0404
-24.7013 -47.8714
-29.2686 -50.4792
-24.0957 -51.3831
-27.9065 -55.5639
-24.5785 50.7065
-23.7719 -56.4608
-22.7855 -52.9286
-29.722 53.0406
-24.895 -56.7241
-23.077 -50.0436
-16.6827 -47.9214
-9.62294 -54.6708
-17.277 -52.7447
-13.3241 -54.0248
-9.307 -49.6428
-13.9103 -51.7463
-6.50685 -52.4236
-7.98552 55.2978
-8.53385 -52.5317
-1.78237 -50.2913
-8.34894 -54.1399
-0.960377 -52.8289
-7.3824 -51.8526
-0.996139 -45.572
0.556064 -55.1053
4.19753 -52.7244
5.20262 -35.117
9.24593 -51.9978
0.732428 -47.9064
8.9897 -50.2978
5.19366 -52.5816
4.13179 -48.3828
8.20549 -44.7788
10.9863 48.4057
6.65439 -54.4153
7.29018 -48.1405
13.2004 56.4501
21.5465 -52.4371
15.8012 53.9414
18.4592 56.3817
14.7105 56.318
22.3181 -54.3383
15.6613 -54.4354
13.7952 -51.9149
29.0047 -55.5695
26.8675 -52.5692
27.9126 -56.4037
26.8847 53.7718
34.2355 -51.7082
34.3296 54.0083
32.2775 -54.8309
33.6642 -50.4164
33.2952 -54.8616
27.9653 -49.445
43.8205 54.9999
37.6037 -53.4392
31.335 -49.9069
22.7544 -52.2061
40.7568 56.1887
33.2409 -48.1942
34.5245 -44.349
49.0255 54.0135
42.2182 -55.6179
38.5899 55.106
45.5667 53.3643
42.2937 -50.4528
51.4235 52.5847
50.1118 -52.8524
48.7096 56.46
56.2961 51.0173
45.8294 55.4438
55.7987 -52.4982
51.9246 53.7753
48.265 54.6873
55.911 48.0232
-55.6238 51.8801
-56.8309 50.5626
52.2558 50.4869
-50.9448 52.1718
-56.6191 47.9531
-49.3985 53.4152
52.9711 53.8146
-50.3271 48.0186
-48.5218 56.0357
-51.8819 55.7449
-47.1429 55.7923
-46.567 -51.7814
-44.8576 -48.7677
-55.0769 56.2468
-47.0396 -54.4558
-49.4798 -54.2477
-36.4291 -50.7759
-33.0571 56.0362
-39.7281 -51.1947
-36.3665 -53.2239
-30.4065 -48.5524
-25.7304 -48.2903
-31.5971 -56.8814
-32.6165 -41.0061
-26.5511 -48.9005
-18.3359 -50.5489
-31.349 -54.1664
-21.1406 -43.6752
-24.1818 56.7893
-28.1605 -50.2806
-34.636 -51.8678
-25.5506 56.8544
-20.2434 -49.6784
-23.5805 55.8024
-10.3717 -53.9751
-8.67541 56.4362
-9.08097 -48.448
-10.909 56.9787
-3.50808 -56.7859
-12.8372 -56.2361
-7.29205 -54.6905
-5.44207 -50.2359
-3.95621 -52.7277
3.43565 -51.7563
-5.01017 -47.9202
1.55798 -53.1065
0.964713 -50.5397
-2.2506 -43.0063
-1.33572 -49.3597
-1.57107 -42.251
0.592874 -46.7503
5.21276 -43.289
4.80606 -38.753
16.2847 -38.2123
5.63904 -36.166
5.93437 -39.0339
12.7628 -40.8513
11.9518 -50.5836
3.85292 -42.5796
7.22493 -56.5871
6.08244 -55.5479
3.94339 -56.8015
10.1869 51.8473
12.7283 52.0509
23.1622 48.8864
7.96735 -49.1631
12.9791 -49.9702
19.9131 -48.4848
19.4893 -51.5386
16.4266 -50.7005
28.1871 51.127
28.7192 -54.427
32.5758 -52.8967
28.4352 52.1519
34.1123 -53.8139
32.076 -53.7589
28.8621 -53.4117
25.8446 -51.7225
28.7553 -48.8433
36.9533 -54.5977
35.3669 -53.5283
39.1986 -54.8792
38.5478 -55.9905
43.0932 -49.6607
41.8272 -53.2201
37.1888 53.7266
44.5068 -51.0246
40.3735 -55.8288
50.0883 50.9739
43.3929 -51.9038
42.6209 -57.1351
50.9449 50.3595
46.7476 -55.6647
47.0009 -52.8135
47.8398 -50.2181
48.9587 -56.9001
50.404 -54.037
49.328 -52.0241
52.5649 -50.3456
48.0292 55.652
51.8762 49.4593
54.2095 48.8332
56.5586 52.1357
-57.0624 46.4996
56.4938 50.0473
55.8359 52.8292
-53.3556 -51.6087
-54.2924 55.5638
-48.3291 -53.4285
57.1332 -56.5489
-54.4732 -51.408
-47.0234 -47.8198
-46.2486 -53.7043
-43.4439 -51.052
-35.9868 -51.6731
-38.4654 57.1725
-40.4466 -54.0641
-35.8466 -39.9483
-41.305 -51.6836
-45.2862 -49.828
-28.0228 -45.9173
-35.2826 -48.8645
-40.8571 -57.0585
-22.2857 -41.6224
-20.0188 -43.8338
-20.9605 -54.6586
-17.5579 -45.9226
-15.9172 -49.7251
-15.6995 -52.0888
-20.5387 -52.8826
-25.5135 -49.2994
-26.6364 -43.7041
-23.016 -53.9309
-22.7502 -46.6233
-14.7276 -55.6997
-22.067 -50.8043
-7.53456 -55.8689
-11.0715 -48.2282
-6.74703 55.0941
-5.16332 -52.3295
-10.096 -52.8144
-0.918977 -50.7967
-11.8634 -50.7499
-6.81441 -48.8032
-7.55034 -53.2777
-3.68451 -46.6665
-4.90915 -40.6967
-3.21501 -42.3661
-7.6364 -44.9582
-2.51976 -41.5613
-3.69089 -47.9582
5.13789 -42.1275
3.42678 -47.5701
2.0627 -41.545
0.8537 -43.6156
-1.53879 -41.0612
8.55689 -51.208
1.67362 -38.4755
4.79704 -45.2772
5.48197 -51.3192
13.2432 -44.6963
10.2685 53.8746
15.6826 -56.0567
6.51159 -51.0248
14.1323 55.513
14.1194 57.1956
12.1386 57.1679
12.6043 -48.931
24.8925 -51.0255
28.3457 54.211
23.4698 -56.542
29.8292 -53.7444
23.7844 -48.8061
22.3694 -56.2793
21.3696 -56.2107
30.9096 -53.9994
36.1906 -51.5088
42.01 56.3672
29.7096 -54.7546
40.9278 -53.7336
28.0591 -52.4203
38.2954 -54.4288
34.4817 -47.0064
40.8034 -56.9906
45.2098 -54.9635
41.9065 54.4617
43.654 -56.7793
46.8836 -50.9077
46.3624 51.2353
48.9651 50.4968
42.8647 54.2166
39.9895 -54.1603
47.7983 56.9885
57.1673 -48.0771
55.1706 -45.3092
54.0837 -56.3943
55.2631 -51.4388
51.906 -48.2714
45.9202 -52.8467
53.0891 -56.2443
46.8637 56.6407
51.0665 -56.1445
55.0329 50.2131
56.2238 49.0692
-55.7046 48.6156
-48.05 -47.5987
-55.5533 53.92
-56.5342 -55.6803
-53.3269 55.0987
-55.6145 -53.8367
-39.5464 -49.0479
-45.8358 -54.7341
-46.2975 53.7849
-35.476 -54.1916
-43.1356 -48.1451
-41.0683 -47.0584
-33.8182 -46.6192
-40.4712 -49.8234
-46.3722 -50.4475
-35.14 -47.8093
-35.223 -43.6219
-34.1855 56.7908
-36.6917 -54.209
-26.2068 -44.6315
-33.0715 -51.6944
-22.9397 -55.7528
-20.2307 -45.7007
-21.9904 -48.4752
-18.6285 -45.7918
-19.9901 -53.7421
-24.0861 -49.7914
-21.5941 -45.9451
-20.4328 -55.6871
-24.5785 -55.6417
-24.4197 -48.8225
-16.9022 -48.9379
-11.0077 -54.7553
-14.3374 -53.4174
-9.76372 -55.6536
-10.5017 -43.5675
-5.8336 -49.2733
-13.3266 -50.463
2.23099 -51.7987
-9.9393 -51.6367
-0.378928 -46.499
-2.86337 -49.5683
-8.14376 -46.2358
1.55055 -44.3629
-0.369167 -47.5706
2.23848 -45.2237
7.05718 -34.7848
9.81985 -50.9918
4.69535 -54.8289
4.57797 -53.7273
4.34895 -36.7955
5.90798 -44.6183
0.510412 -45.2415
15.473 -50.2803
7.18286 -43.1047
11.7397 -55.2358
8.13715 -54.8528
7.99887 -53.8279
4.44693 -47.0213
17.1566 -56.1485
15.1381 55.0262
15.4972 -47.1047
19.0636 -54.0124
17.8927 -53.4822
15.7854 55.8893
19.1003 -55.0538
24.431 -53.7396
34.3237 -54.869
23.0208 -55.4574
27.4395 -54.5062
26.4838 -50.7314
28.2912 -51.1416
28.2716 55.4373
32.8504 -49.4816
33.7594 -46.1398
28.3571 56.7672
24.5398 -55.9731
27.211 -51.6238
37.5652 -56.3334
41.9217 -54.239
39.1607 -52.1804
40.9459 -49.8528
43.6551 -47.351
52.819 -54.3243
44.4526 56.9748
51.868 -51.8302
43.2265 -54.8256
42.3036 -51.8401
50.2469 -55.4244
51.3 -52.9054
49.2302 -53.6296
52.841 -51.6591
53.4678 -55.3004
50.3025 -47.9477
53.5599 -52.6175
52.1295 -55.5993
44.6893 -56.4372
48.0943 -55.3972
54.9841 54.5495
55.615 55.5094
-55.4294 52.8882
-52.6811 -48.1071
-50.8302 -53.1994
56.9819 -55.0168
56.0948 -55.8916
-46.5116 -44.939
-34.6671 -49.658
-40.1623 -55.0909
-37.5395 -53.3212
-44.425 -52.9472
-33.1339 -49.4761
-34.4351 -53.1745
-47.0486 -48.8737
-38.5217 -51.1303
-27.5718 -41.6097
-31.6644 -45.9754
-34.7683 -45.5461
-31.4834 -48.0619
-33.694 -50.9243
-21.2999 -41.5123
-17.6927 -44.0093
-17.1035 -46.9953
-16.0264 -50.7509
-16.8572 -50.1977
-14.6449 -52.4383
-25.0379 -46.8978
-16.9284 -54.638
-22.242 -54.6013
-21.5409 -57.0751
-23.0662 53.3321
-21.8133 -51.9886
-19.3453 -52.7364
-13.2638 -47.5493
-8.80217 -50.5117
-15.0983 -50.351
-3.10156 -54.8605
-12.0384 -54.4415
-11.9198 -51.9663
-2.62015 -51.1309
-8.1373 -47.6826
-9.89464 56.4224
-1.09716 -40.0464
-6.49378 -50.5927
-3.56649 -50.5719
1.21059 -39.405
-0.165176 -48.5446
4.51221 -51.6887
-3.13233 -39.5012
1.78434 -35.8672
2.77341 -35.7393
2.57718 -39.2127
3.29051 -45.3696
3.69462 -39.1225
6.51962 -46.4414
7.61201 -46.0596
5.04628 -41.0987
6.12023 -48.9991
8.19766 50.2084
15.2608 -57.1399
9.94911 -45.4151
21.9502 -51.1692
11.7356 -49.5673
18.8132 -49.8837
20.7377 -55.3143
15.1125 -52.3322
27.2005 54.9403
16.7143 -44.5987
18.2017 -50.8666
20.5065 -51.1856
27.6094 -53.4029
23.8564 -51.2509
23.7307 -52.4302
29.3704 -52.4674
25.9461 -48.5061
23.4846 -45.1059
36.0563 -52.7106
37.7528 -55.3153
30.0832 -47.2514
39.7764 -49.5725
36.4152 -53.7243
46.9698 -47.1143
38.2694 -52.6477
37.1657 57.0675
45.5014 -44.601
38.9704 -45.7439
45.5541 -53.7731
46.4555 -51.9522
48.173 -48.403
49.6599 -51.0163
50.8293 -46.35
50.829 -51.5306
43.8077 -52.8887
56.0391 -53.7741
-56.7494 -51.4044
48.3923 -47.3703
53.886 -53.7918
54.1062 -51.7178
53.9209 46.1877
52.4847 52.6969
49.5599 -54.637
54.5794 56.7834
-52.1694 51.7821
-52.8896 -55.8636
-53.0606 -52.5778
51.3006 57.1719
-48.1448 -48.6161
-38.0338 -44.3958
-47.5113 -49.8401
-37.6685 -46.664
-30.9623 -52.0272
-39.713 -45.0932
-34.4876 -42.0799
-37.1899 -38.8319
-32.2877 -48.9597
-35.8907 -45.4241
-24.0593 -47.0842
-29.3218 -46.4894
-27.5699 -46.8479
-22.4712 -45.4517
-26.5818 -40.9486
-19.7439 -40.6565
-20.5486 -42.8302
-20.7798 -51.5807
-23.7805 -42.3058
-18.1698 -48.3251
-15.1936 -48.9579
-17.5414 -51.1897
-20.6423 -50.5977
-25.2196 -51.5988
-23.1643 -44.2235
-21.7673 -47.2956
-18.3892 -53.0376
-19.401 56.5741
-18.544 -54.7366
-8.22819 -49.6817
-15.0937 -46.0046
-12.8747 -51.5858
-12.1774 -52.973
-2.54874 -47.2423
-7.04813 -47.8356
-10.0677 -50.455
3.13622 -48.5271
-8.50508 -44.2963
-0.263536 -44.1924
-1.58192 -47.8275
7.31229 -52.6015
6.33535 -42.155
-3.33692 -34.8731
-4.19189 -42.9393
11.1088 -44.8685
-2.42869 -40.3365
12.1288 -45.3909
3.79562 -43.6082
6.11223 -52.1462
2.76182 -42.9163
10.4548 -50.1717
12.578 -56.0221
6.75177 -45.3315
10.4061 -52.0829
1.49289 -47.2539
12.2302 55.5513
18.8621 55.3625
17.3278 -47.1441
21.398 -47.7807
19.2553 -52.751
17.9568 -44.8744
20.3823 -47.6026
24.5685 -50.0646
23.4708 -43.174
35.6078 -54.7725
21.7834 -48.8942
26.055 -46.1451
23.4959 -47.6977
25.7758 -49.9755
39.8436 -53.054
27.4399 -50.3078
38.8491 -53.5339
37.0993 -52.2819
34.2276 -48.061
30.2313 -50.2079
35.66 -44.5864
36.2795 -55.8181
41.5978 -48.4886
38.0995 -50.2271
41.2614 -50.9116
49.3835 -44.3098
44.7474 -48.8261
40.7927 -52.4067
39.171 -50.4966
48.7458 -49.5488
46.2673 -50.1026
46.6913 -48.1552
-54.846 -40.7986
56.9988 -35.3798
47.294 -43.5081
48.2799 -45.2948
46.8192 55.2144
55.0953 -47.3587
54.9615 -53.962
53.8573 54.388
55.5919 56.5018
56.3876 54.8077
54.5791 55.6371
-46.1305 -43.9601
-49.37 -56.1493
-45.1579 -47.6275
-47.7943 -45.0048
-28.658 -47.4946
-41.2688 -53.1518
-38.2633 -52.2377
-38.0848 -47.6031
-32.3293 -42.2185
-40.1958 -48.2479
-39.2473 -50.2125
-31.1801 -42.2213
-34.3193 -43.1995
-20.849 -46.707
-28.4288 -52.7246
-18.157 -49.4733
-22.1288 -43.9429
-28.9923 -39.4504
-20.8539 -44.6608
-22.337 -39.4265
-33.3806 -39.6363
-14.9863 -41.5781
-23.402 -45.862
-15.4659 -47.9983
-14.3675 -48.3057
-18.9889 -53.8397
-19.7629 -54.7611
-17.8001 -54.0181
-15.0852 -54.284
-4.10047 -51.6979
-7.11856 -49.7734
-10.3915 -49.1618
-15.2656 -45.0294
-13.8035 -46.4658
-11.0259 -52.3939
-11.4274 -42.9128
-6.09061 -47.0753
-9.73067 -46.1373
3.88561 -46.1813
-2.13162 -45.3622
-3.40999 -45.2071
-6.48402 -44.4639
-2.94647 -38.3187
6.18705 -33.3976
-1.89269 -38.9875
8.1281 -38.9685
-0.205395 -40.9634
2.22359 -36.9441
9.86464 -37.3529
1.68553 -42.7508
12.7299 -47.8282
14.5998 -37.4191
9.11412 -55.2939
13.7646 -53.9841
10.8336 -49.028
13.5297 -52.9613
9.00615 -54.2234
17.4769 -49.8812
12.2812 54.0498
13.9428 -43.9739
15.0048 -49.3562
15.9991 -51.861
14.1981 -45.0358
20.6785 -49.1468
19.2293 -47.6644
20.3091 -44.5435
24.2912 -45.7758
20.5606 -42.344
20.385 -52.3741
27.8648 -48.3939
20.2849 -54.4088
31.3669 -46.623
28.7418 -47.6058
33.807 -52.8258
39.3328 -47.482
45.878 -47.4625
39.5819 -40.9609
36.1994 -46.5547
34.7695 -52.5662
41.9454 -49.481
48.7127 -41.8945
46.5091 -44.3831
40.6021 -48.6433
44.0987 -55.3638
46.4599 -46.0995
49.8104 -42.1906
44.8101 -52.9708
54.3763 -45.9461
55.8156 -44.5225
-53.6457 -34.985
51.3478 -50.4319
53.9358 -48.5959
48.4322 -52.824
55.3085 -56.6219
55.9238 53.8211
-56.8185 54.4062
-54.104 -52.4389
-50.2688 49.7088
-52.2048 -51.7315
-50.847 -51.5741
-45.0109 -44.2333
-42.4612 -49.6399
-47.8715 -52.3038
-50.1153 -55.1308
-45.6014 -52.8764
-42.2366 -50.5991
-36.1256 -44.1811
-34.7329 -37.8336
-34.4321 -39.8621
-35.8327 -46.6874
-33.0139 -35.3065
-26.4939 -46.9831
-29.3357 -42.0507
-27.6578 -43.6579
-21.5547 -42.7476
-18.841 -43.8432
-28.8433 -41.08
-24.4029 -44.5947
-26.9009 -39.6807
-22.5235 -43.0051
-14.2561 -45.3416
-19.7715 -51.6293
-18.4095 -44.7572
-18.2761 -42.6261
-16.0849 -42.8456
-16.7039 -51.9299
-12.4296 -44.1242
-17.2909 -44.9545
-13.202 54.9475
-18.2119 -46.9975
-14.7974 57.1457
-16.3059 -45.1567
-7.25578 -42.6974
-13.8661 -56.3502
-2.00387 -52.7684
-4.04203 -49.6889
-11.0466 -50.0659
-5.27317 -42.7942
2.13931 -50.3521
-4.57189 -41.7969
4.42903 -39.9132
2.7936 -44.0985
5.15 -33.9319
4.07142 -41.3509
3.21589 -50.529
6.13322 -32.2786
9.35804 -43.5041
11.2766 -41.5871
13.531 -39.6894
14.6213 -42.1935
13.0584 -45.8446
19.6905 -37.7693
15.0114 -41.2762
9.57658 -47.4783
10.6124 -47.6707
14.5454 -53.2309
14.7848 53.9413
14.2667 -56.2331
16.0845 -53.1077
18.1598 -48.0677
31.4753 -40.5706
24.5944 -43.3266
24.285 -39.8764
22.0144 -42.7656
26.7905 -42.3982
25.6584 -42.325
22.1677 -45.52
32.1926 -44.5029
21.8129 -41.7523
22.8797 -50.7339
35.2935 -56.0693
25.2718 -45.3238
33.1109 -53.8431
32.1371 -48.769
30.509 -46.0734
29.7717 -48.1958
26.8802 -48.0968
37.5245 -43.2943
36.61 -48.9123
47.2038 -42.3364
37.9887 -45.3032
52.8513 -44.781
40.5125 -47.5024
37.7672 -49.1437
45.0595 -51.9053
47.5141 -44.515
45.7564 -48.7541
53.9238 -47.4999
51.4299 -45.3847
55.7919 -50.523
54.7559 -52.8873
53.5238 52.911
55.4711 -55.0629
56.3294 57.1749
-56.3057 -53.0122
-53.5655 -53.5694
53.6541 -49.7046
-45.3989 -46.3245
53.5876 57.0896
-44.3948 -46.6757
-41.3386 -49.2626
-42.2435 -47.321
-40.0342 -46.0512
-38.8684 -48.2279
-36.2349 -43.0633
-36.9955 -37.695
-38.6077 -40.8855
-34.0873 -38.8067
-34.7328 -44.516
-34.0703 -48.867
-33.1427 -43.213
-28.8322 -44.8093
-25.9529 -42.9316
-20.3301 -41.7761
-23.3028 -38.9925
-30.314 -41.6893
-26.9435 -36.0049
-18.9996 -47.6952
-25.7119 -40.4777
-20.8087 -40.2017
-24.95 -33.6335
-26.2048 -41.9623
-15.5804 -53.1375
-16.6981 -53.6618
-18.987 -41.4575
-19.7545 -46.8435
-13.381 -48.9452
-12.3586 -48.2015
-13.8394 -44.3248
-12.4395 -49.9251
-5.75344 -51.3663
-8.69945 -45.2786
-7.64051 -50.6409
-14.8127 -47.2137
-10.9967 -51.3212
-9.95085 -47.8324
-4.29038 -36.7227
-1.50912 -46.6312
-4.20756 -39.9751
-4.75417 -46.6111
12.9083 -38.825
2.7531 -31.8493
12.3026 -43.0475
6.41077 -27.0198
-6.79245 -45.5044
0.953051 -41.7049
2.75626 -37.8433
14.6873 -39.41
4.62424 -44.2727
7.41213 -50.4427
7.20574 -44.0955
11.2691 -43.7205
11.6887 -54.0933
6.65147 51.0394
4.76403 -50.6192
9.46811 -49.4207
15.1287 -44.0297
14.5515 -54.6064
10.9508 -51.0942
19.9665 -49.9275
20.7979 -40.9198
23.6339 -42.1037
28.6874 -45.3941
17.1205 -40.872
21.954 -53.3557
29.378 -40.7555
28.6562 -39.693
26.9049 -41.0347
19.6176 -41.4728
22.5722 -46.9479
26.8072 -49.3541
22.5441 -43.9054
29.537 -51.0113
33.0885 -43.7429
29.7731 -49.2503
28.1154 -46.336
34.9341 -50.8366
39.3322 -48.4829
38.7638 -49.4667
43.1799 -46.4524
37.3354 -47.1021
37.1528 -51.1212
41.7743 -41.6418
56.4006 -45.5162
50.3493 -50.2234
54.1207 -42.9436
-55.6542 -51.8337
47.7298 -46.3595
55.8474 -42.2526
55.476 -46.2811
52.5855 -49.1722
49.8538 -47.0479
-57.1499 -50.3562
56.7096 -52.9882
-51.9878 -52.8818
52.3648 56.398
-56.5887 -47.198
-55.7523 -54.9904
-42.2514 -48.6162
-47.8407 -40.7957
-43.8776 -48.9797
-36.7522 -48.9469
-44.3932 -45.6205
-37.0652 -44.859
-39.8953 -39.3063
-37.8502 -48.8216
-37.06 -49.9559
-31.4466 -39.0602
-31.8003 -43.3026
-24.8824 -41.4395
-32.6272 -44.084
-29.5889 -43.0237
-29.7392 -45.3165
-28.6041 -42.8033
-24.9619 -37.615
-21.5172 -34.1349
-23.4357 -39.9754
-19.5466 -42.9493
-27.4348 -37.8427
-21.9885 -36.8461
-15.9893 -41.4622
-15.0812 -42.5941
-12.965 -33.0634
-19.5119 -44.7512
-10.5124 -37.7109
-11.6232 -45.1702
-15.8344 -46.9802
-16.5291 -46.1377
-12.1791 -41.3033
-13.7094 -38.6898
-10.7513 -41.9058
-7.29731 -43.764
-7.12353 -46.5566
-9.37532 -43.5073
-6.28016 -43.4911
-7.53744 -41.4149
-6.32087 -35.1322
1.34734 -45.9312
-0.672054 -39.132
3.33478 -36.7516
0.567212 -33.9124
-1.47301 -34.4463
6.06279 -34.5044
2.83579 -34.6921
9.39278 -40.2991
22.5247 -34.5898
8.32372 -43.6896
8.72319 -48.4709
7.92434 -47.3023
9.96756 -46.4296
17.1332 -39.8084
8.87506 -46.6986
16.1526 -49.4756
8.87705 -45.5196
14.1799 -48.0514
16.4127 -48.3042
17.1715 -42.8875
16.4088 -46.7121
11.557 -47.3515
14.6028 -45.9465
21.2484 -46.3689
15.3898 -45.0766
13.3718 -43.1512
18.0986 -40.4876
32.3434 -47.044
32.1522 -33.8013
34.6353 -41.7459
19.7585 -43.6828
25.4193 -44.1791
24.6777 -42.1125
19.1397 -45.3419
31.4799 -45.629
24.7857 -49.0737
27.5377 -43.0729
23.26 -46.1778
37.5051 -40.6917
35.7886 -47.4671
33.3663 -47.1217
38.3438 -46.8372
36.7807 -47.9402
51.969 -46.2984
35.7942 -50.1316
52.2102 -47.2907
45.088 -45.631
55.5844 -43.519
56.206 -40.7679
52.7212 -43.1116
49.8242 -49.1482
-55.3531 -41.8965
-56.6706 -45.356
53.52 -50.817
-55.8595 -48.5234
-57.0765 -46.2692
-56.8276 -42.9934
54.582 -50.2876
50.0385 56.5485
-40.5339 -52.4486
-47.0715 -53.0566
-49.6596 -49.8821
-39.692 -53.327
-47.4025 -51.1143
-50.1058 -43.4071
-43.2595 -45.3019
-38.6619 -46.434
-38.9372 -39.9409
-44.7322 -33.8231
-36.6362 -41.796
-45.3315 -43.2569
-32.492 -45.3153
-33.8015 -45.0426
-36.0414 -38.2895
-33.8127 -33.1646
-31.585 -44.4671
-24.0731 -38.1817
-30.4678 -37.6846
-14.7892 -40.5193
-20.7101 -30.0243
-23.2987 -35.898
-16.9122 -40.9119
-14.9355 -44.0246
-18.0345 -37.7015
-22.0906 -40.4326
-18.8954 -37.1952
-13.5515 -40.9306
-18.7443 -40.1932
-19.7145 -39.3084
-15.7699 -55.9577
-16.0358 -40.3724
-9.67599 -42.4967
-17.0471 -43.2346
-12.6692 -42.6246
-9.10372 -47.1048
-6.95145 -37.9582
-9.66399 -34.5933
-5.57647 -45.8452
-3.33678 -43.6243
-9.50617 -44.7011
0.880102 -40.5644
-6.64148 -36.8795
-5.95321 -33.0895
-0.477044 -33.9571
-5.95314 -31.7865
4.22381 -33.3618
3.23847 -40.4588
0.515918 -38.6081
0.410763 -42.5406
10.0201 -38.346
7.27397 -41.6111
16.0804 -40.8274
22.4884 -37.9045
17.4001 -41.8374
17.5102 -37.6679
16.8641 -36.8899
22.829 -41.426
33.4012 -39.6076
12.0066 -52.9951
9.91932 -48.4875
14.4984 -47.0779
19.3459 -46.4911
13.6978 -48.951
15.3428 -42.9304
16.9975 -45.6274
17.2789 -48.8674
24.2418 -44.4557
30.8261 -42.9192
33.7345 -41.3295
27.7933 -44.6684
35.899 -38.3931
34.357 -36.4534
37.8932 -39.5934
38.8117 -42.9784
38.4204 -41.134
31.1909 -51.1154
24.466 -48.0065
30.7919 -48.8574
36.8429 -45.7102
32.2991 -50.4866
35.6171 -48.4573
24.3993 -47.0011
45.61 -50.9251
39.763 -46.3635
50.3961 -43.9931
41.5822 -46.9505
48.5999 -51.1486
56.5689 -39.7572
56.3982 -36.186
55.121 -38.141
-55.8706 -40.3429
-54.5296 -45.4439
-56.4705 -41.503
56.9382 -41.7461
-50.4891 -50.4364
-51.6463 -48.8386
57.1821 -49.2034
-52.637 -54.1211
53.0889 51.7231
-56.5901 -54.1966
-45.8892 -48.3056
-52.8769 -49.3256
-52.0903 -56.4995
-53.7625 -48.5534
-41.8128 -45.1272
-47.1243 -44.0502
-42.2621 -44.2331
-41.0921 -44.2572
-41.3034 -48.0801
-39.7668 -42.0329
-33.2739 -41.7917
-31.3106 -40.2013
-30.7424 -43.9138
-24.3346 -40.514
-27.8772 -39.89
-35.7542 -41.1098
-30.4876 -38.7138
-32.3146 -40.0141
-21.8844 -31.7036
-24.483 -39.4389
-25.5252 -39.4338
-11.9733 -37.5978
-24.2266 -36.9375
-19.3926 -38.177
-16.0524 -38.56
-14.1808 -37.6305
-15.3414 -39.4928
-12.2415 -39.0821
-20.0137 -29.2736
-18.0652 -29.2475
-10.5462 -45.3644
-11.8715 -40.0143
-14.323 -39.5646
-13.7236 -41.9654
-6.32505 -40.8356
-5.43939 -44.4943
-11.4496 -49.1532
-4.31944 -37.7806
-5.70454 -37.2418
-4.69972 -33.3737
-4.9137 -38.829
0.0237114 -35.8814
-0.822782 -36.6082
-5.57662 -30.6676
5.38267 -31.5763
-0.0185001 -34.8772
6.30493 -30.2827
1.96283 -40.3374
7.21937 -38.3685
6.2205 -37.9298
4.04348 -37.9762
10.9895 -46.1004
15.4182 -48.1883
5.73867 -40.2353
15.6454 -36.5255
11.3668 -42.7196
14.0631 -32.7555
16.12 -41.8879
13.492 -46.8746
12.2248 -46.5492
14.0048 -50.5792
21.9281 -40.6417
18.6642 -44.1635
21.0087 -39.3535
20.1617 -38.6926
29.8093 -44.958
25.147 -32.6424
30.0064 -43.927
30.4741 -41.3702
31.5931 -41.9489
35.201 -33.4192
29.8198 -42.336
28.9335 -41.6768
34.1223 -43.322
27.063 -45.8644
20.7954 -43.6451
23.1944 -49.7917
22.5335 -48.0522
50.4217 -40.6424
53.7418 -39.1492
32.1559 -51.8859
34.4642 -45.416
36.9966 -50.0802
44.6778 -47.7572
44.3923 -46.3495
51.6815 -44.3529
53.8718 -37.9684
55.7562 -37.2504
52.783 -37.9614
-55.438 -45.8745
53.9779 -45.0001
51.9648 -35.5434
-56.9284 -40.4248
-55.588 -47.4283
-53.6194 -43.0901
-54.7404 -43.1823
56.6651 -51.3662
-52.9495 -47.1042
-51.7758 -55.536
-53.4298 -55.0289
-56.1583 56.2729
-54.5571 -46.4944
-54.8651 -48.2037
-43.4094 -49.9089
-40.5446 -40.3834
-46.0392 -42.4819
-37.1532 -48.0408
-38.1038 -43.2097
-41.3232 -46.0809
-35.5329 -42.3609
-30.5137 -46.306
-25.7086 -38.3989
-36.0856 -32.4811
-37.0089 -35.7862
-35.3903 -39.0569
-30.7368 -45.0536
-34.9693 -36.1195
-38.0151 -35.0121
-32.4437 -34.2276
-22.5169 -33.7302
-26.7741 -38.6772
-24.7854 -35.1648
-23.3862 -41.3239
-16.8158 -42.1104
-16.3515 -35.0147
-15.2719 -30.345
-15.6385 -33.6026
-18.0664 -35.3803
-18.7136 -38.9537
-17.7254 -40.2406
-4.01929 -32.547
-6.71733 -39.5569
-9.83931 -40.094
-8.00268 -33.6429
-9.8674 -41.4545
-10.8955 -46.793
-5.62525 -36.1028
-7.4211 -34.7565
-4.39399 -45.4167
-4.84423 -49.0038
-6.06103 -38.6901
-3.87532 -38.7755
-3.34963 -36.2133
-1.93887 -37.8468
1.05333 -37.6226
7.1907 -39.3776
10.2848 -44.3007
13.4682 -37.5976
12.6883 -42.0383
9.26277 -41.6643
24.1886 -38.7786
16.993 -35.8101
11.3115 -40.4227
19.058 -36.5556
15.6271 -46.0583
24.9632 -37.6815
13.5262 -36.576
26.1181 -39.1578
16.161 -43.5647
18.5104 -43.1288
18.0853 -39.4794
25.7848 -41.2851
17.7088 -43.8925
19.9741 -39.7402
18.6942 -41.9663
19.0142 -40.024
32.4309 -38.3609
27.5378 -37.9004
32.9364 -40.5261
37.2928 -33.5667
33.2197 -37.6189
34.7608 -38.3644
35.5319 -39.5098
40.6808 -41.2861
31.4008 -43.8726
29.2293 -46.2826
27.6703 -47.2606
44.202 -44.7774
40.8143 -46.2503
45.6195 -42.5308
49.5594 -43.1833
41.3435 -45.1056
42.6268 -48.6977
42.4306 -40.7861
51.304 -39.9697
48.7992 -46.1735
55.9774 -38.9483
55.0285 -34.3032
50.9757 -36.9153
55.4766 -35.3114
53.477 -43.8926
57.0626 -44.1568
-55.9996 -49.6168
56.9002 -37.0881
-55.6729 -42.8432
-54.2288 -47.4442
-52.2675 -46.3101
-49.8865 -51.2865
53.1569 -45.7709
-49.1781 -47.8652
-53.783 -50.3896
-51.9719 -49.8623
-49.1421 56.8449
-54.7092 -55.563
-48.7895 -46.8938
-49.3126 -53.0533
-46.1497 -49.3113
-37.7339 -45.6027
-38.4835 -42.2556
-32.4646 -38.9347
-41.6013 -34.22
-44.6854 -32.3312
-36.662 -40.5107
-39.7619 -30.1314
-34.5504 -32.2401
-37.0389 -34.6555
-34.9557 -34.5057
-35.9655 -36.2701
-31.375 -41.1829
-34.3021 -35.3333
-14.949 -38.3203
-23.7904 -30.6787
-17.7982 -41.7389
-17.8904 -33.1308
-15.7235 -31.3817
-13.7735 -35.8744
-17.925 -28.2293
-16.3432 -29.7994
-13.7084 -33.8262
-17.102 -35.8097
-16.7584 -36.9574
-13.0127 -37.8913
-8.41105 -43.0652
-5.73061 -39.7988
-11.8447 -46.2402
-9.89297 -39.0227
-5.8232 -41.8394
-11.0307 -40.9323
-7.53129 -38.8306
-6.07671 -48.0802
1.00069 -36.5114
-2.48776 -31.4815
-1.62067 -33.1933
-4.39155 -31.3962
0.629075 -30.9888
7.16746 -32.9486
-0.0144589 -39.9711
9.09737 -39.3294
11.0481 -36.8222
6.23309 -41.1006
12.1322 -44.3155
21.7448 -36.6178
22.3556 -35.7715
22.8984 -32.5814
26.4308 -38.2101
21.3692 -34.356
24.3758 -35.5974
20.3281 -35.295
28.5871 -38.5247
15.8946 -39.2182
24.9448 -40.7075
27.223 -33.3823
28.9185 -43.8685
29.6094 -39.0698
28.2747 -40.7941
22.9322 -40.2084
19.4269 -42.7378
23.928 -40.8768
31.4317 -38.2656
33.6768 -42.413
32.2282 -35.7767
37.5087 -38.3461
36.9142 -41.5062
43.5879 -41.0428
26.5353 -47.0148
35.1953 -43.5839
26.3132 -44.7365
35.5204 -45.6629
37.8938 -42.1478
43.2143 -45.1583
44.1251 -43.78
54.8263 -39.8471
44.548 -42.7545
49.7349 -38.6758
49.1823 -47.9768
55.1323 -40.7956
53.6002 -36.8303
50.5928 -42.9084
-56.1215 -39.2833
-57.0968 -39.0894
56.5928 -43.0534
56.7553 -38.2279
-54.9385 -50.3956
55.7257 -48.5002
56.4966 -47.2589
-54.0217 -44.2165
-48.5201 -45.7475
-43.9253 -43.3729
52.3431 -52.8454
-51.5747 -50.8463
54.7429 -49.2318
-54.5735 -49.3951
-44.505 -42.4926
-52.3983 -43.0317
-41.9345 -43.1262
-44.1372 -47.7654
-38.7509 -45.3728
-43.2971 -36.2961
-40.8943 -35.4957
-38.6261 -53.2155
-37.5848 -39.9551
-32.7909 -33.13
-37.4131 -36.7616
-37.3037 -30.2905
-29.1138 -29.9734
-38.1902 -38.0169
-37.8522 -33.9647
-38.8571 -36.963
-42.669 -34.1377
-29.724 -40.6122
-18.8678 -34.0442
-20.3755 -34.039
-22.0394 -35.5783
-20.4099 -38.5807
-14.9012 -35.6975
-17.7361 -34.3963
-27.2266 -34.0225
-18.9849 -32.9761
-19.9027 -37.3232
-12.9 -45.8359
-5.49362 -33.969
-11.2745 -44.1983
-7.31122 -35.9999
-13.5032 -36.8873
-8.30524 -36.1767
-4.1889 -44.1673
-14.8706 -51.3368
-13.2892 -34.9556
-12.4346 -35.7201
-3.44726 -33.5392
-11.2652 -33.8675
-0.380524 -30.9537
3.48594 -27.7001
-2.01556 -25.8707
3.43448 -30.1902
4.03025 -35.5466
3.51033 -26.4708
13.9362 -38.65
10.1785 -39.4967
22.1471 -39.0259
12.009 -38.1942
16.6817 -34.4314
18.6964 -35.5495
23.3811 -35.5489
25.121 -39.297
30.4286 -38.4099
19.2729 -33.3391
27.9989 -36.5766
26.5269 -35.5016
18.8666 -38.4578
20.5553 -36.6289
24.242 -33.7671
32.1831 -39.8393
22.0054 -30.8572
26.1012 -40.2786
33.5342 -38.5749
30.3507 -34.7071
26.5337 -43.7485
28.6669 -42.7551
30.2523 -39.8657
34.7878 -32.3408
36.6962 -39.0245
34.3684 -49.6376
36.4422 -43.6026
30.529 -36.8125
25.5053 -47.3401
32.5822 -45.6667
30.8195 -44.8885
37.2011 -44.5243
49.2869 -35.4155
41.7761 -43.8663
42.5874 -47.5457
40.9601 -42.5669
53.122 -41.1969
45.9867 -41.3798
52.3502 -41.9508
52.7808 -39.7222
55.1938 -36.2733
-55.9542 -33.0805
51.2435 -34.7586
54.8234 -44.2689
51.3295 -27.8435
52.9935 -31.6981
-51.3908 -45.3911
-50.0929 -46.9904
-51.2752 -43.3462
-45.3821 -45.2631
-55.2382 -52.8834
-50.3219 -49.1085
-53.9391 -40.2698
-46.1092 -47.2366
-55.905 -50.6188
-51.3257 -44.3501
-48.8336 -52.0825
-42.1451 -35.4158
-48.3777 -42.6169
-41.0218 -39.4141
-45.7592 -33.497
-34.8188 -46.5607
-35.6499 -37.2934
-33.7676 -40.9065
-38.7746 -34.3444
-37.6292 -41.2706
-40.7755 -30.3936
-35.8473 -35.0273
-44.5737 -35.3785
-41.7539 -33.0144
-38.9735 -33.0497
-39.9084 -37.6666
-33.3535 -36.3148
-28.4523 -38.275
-22.0714 -38.0439
-29.0465 -35.0038
-23.0643 -36.9319
-17.7596 -31.774
-19.9228 -31.1552
-30.0307 -29.5581
-20.6414 -35.2601
-9.4348 -38.0754
-12.3487 -30.0988
-11.0485 -38.5628
-15.6073 -37.5137
-14.62 -33.444
-16.0263 -35.9493
-4.21464 -35.663
-9.6182 -36.8512
-14.3615 -34.6039