ITEM: TIMESTEP
50100
ITEM: NUMBER OF ATOMS
10000
ITEM: BOX BOUNDS pp pp pp
-5.0000000000000000e+01 5.0000000000000000e+01
-5.0000000000000000e+01 5.0000000000000000e+01
-1.0000000000000000e+01 1.0000000000000000e+01
ITEM: ATOMS x y
49.8833 -49.697
-48.2541 -49.7335
-47.4057 49.6579
-46.4013 -49.8677
-45.5324 49.5322
-44.5997 -49.8791
-43.6371 -49.4446
-42.6832 49.9517
-41.7659 -49.6277
-40.9035 49.8544
-39.9738 -49.6766
-39.1288 49.7121
-38.261 -49.6931
-37.2413 49.732
-36.3916 -49.7035
-35.4458 -49.2259
-34.5219 -49.862
-33.6308 -49.3609
-32.7487 -49.8562
-31.504 49.5597
-29.8504 49.3577
-29.4983 -49.6268
-28.4308 -49.5457
-27.6631 49.5189
-25.0148 -49.5257
-24.5171 49.4187
-23.5102 49.4055
-23.0057 -49.7224
-22.4547 49.412
-21.3939 49.4116
-20.3316 49.4
-19.2829 49.4251
-18.2699 49.3817
-17.0206 49.1825
-15.9714 49.2901
-14.961 49.1876
-13.8748 49.1926
-12.2355 49.9915
-11.7379 49.036
-11.2739 48.1449
-10.1894 47.9808
-9.6005 47.1502
-9.13831 48.1328
-7.99368 48.2259
-6.94885 48.2679
-4.90542 48.4214
-3.70942 48.2866
-3.13866 49.202
-1.51597 48.1884
0.720481 -49.8283
1.26093 49.2575
1.77531 -49.881
2.87227 -49.7595
3.89927 -49.7725
4.43317 49.2937
5.54721 -49.9681
6.50614 49.7503
7.50702 49.2748
8.4513 49.7603
9.30971 49.2219
10.3479 49.8038
11.245 49.2758
12.1958 49.8265
13.1885 49.2875
14.8968 49.2597
15.8442 48.6487
16.7492 49.171
17.6556 48.4963
18.5676 48.9201
19.4902 49.4253
20.4713 48.9315
21.3238 48.2611
22.3656 48.8719
23.1968 49.4357
24.1149 48.7722
24.957 49.3042
25.8907 48.8764
26.8483 -49.4922
27.712 49.9379
29.6029 49.7675
30.5151 -49.8016
31.5057 -49.2117
32.3334 -49.8291
33.1757 49.5723
34.2093 -49.8818
35.0584 48.6349
36.0252 49.0018
36.959 48.6122
37.8517 49.1731
38.7389 49.6978
39.6655 49.056
40.6558 49.3805
41.4717 48.8095
42.3973 49.4769
43.3366 49.0828
44.357 -49.4871
45.3412 -49.1093
46.2172 -49.6388
48.0379 -49.6345
48.8671 49.8132
-49.2098 -49.2042
-48.2502 -48.7044
-47.2604 -49.3576
-46.3116 -48.8535
-45.4936 -49.451
-45.4503 -48.3016
-44.5534 -48.8455
-43.6655 -48.3524
-42.7395 -48.9521
-40.837 -49.0621
-39.9532 -48.5233
-39.1408 -49.1073
-38.199 -48.6155
-37.2957 -49.2255
-36.3115 -48.6138
-35.3531 -48.1642
-34.4411 -48.7636
-33.4999 -48.2725
-32.5819 -48.8049
-31.6189 -49.4155
-30.7129 -48.9512
-28.7444 -48.5734
-27.2146 -49.573
-26.0895 -49.5899
-25.5545 -48.6863
-24.4493 -48.6501
-23.9916 -49.5359
-23.4466 -48.6684
-21.964 -49.6797
-20.8544 -49.6711
-19.7325 -49.5811
-18.6793 -49.7028
-17.519 -49.8404
-16.4669 -49.7998
-15.4224 -49.8381
-14.388 -49.8375
-13.3828 -49.9415
-11.7289 -48.9012
-11.2347 49.9272
-10.6402 48.942
-9.5935 49.136
-8.59443 49.1265
-7.99318 -49.9235
-7.51237 49.1522
-5.44196 49.2598
-4.79822 -49.7603
-4.31238 49.2288
-2.58811 -49.9466
-2.0564 49.1193
-0.42801 -49.9322
1.17366 -48.6679
2.1092 -47.7846
2.24626 -48.883
3.91688 -48.7464
4.78438 -49.3044
5.67761 -48.801
6.66712 -49.2305
7.57101 -49.6755
8.5299 -49.1838
9.46886 -49.7312
10.3128 -49.153
11.225 -49.6446
13.0724 -49.7008
14.0704 49.8334
14.9837 -49.6952
15.8483 49.6529
16.682 -49.7937
17.7077 49.5136
18.6094 -50.0091
19.4785 -49.489
20.3425 50.0018
21.3826 49.3427
22.2664 49.9065
23.2274 -49.5316
24.1607 49.9337
25.0507 -49.562
25.9327 49.9754
27.8476 -49.0526
28.766 -49.6749
29.6498 -49.1737
30.5811 -48.7072
32.469 -48.7937
33.3099 -49.4147
34.1759 -48.8279
35.081 -49.3602
35.1421 49.6337
35.9726 -49.8051
36.94 49.6302
37.7982 -49.8059
38.7869 -49.2725
39.6698 -49.8182
40.5944 -49.3392
41.4287 -49.9197
42.4583 -49.4169
43.3494 -49.9207
44.3957 -48.4697
47.1168 -49.0751
48.0306 -48.5452
48.9033 -49.113
49.9335 -48.6932
49.9136 -47.6951
-49.1677 -48.1901
-48.2231 -47.6626
-47.3373 -48.1729
-46.3691 -47.85
-45.4641 -47.277
-44.4906 -47.7887
-43.5879 -47.3032
-42.5795 -47.9331
-41.7435 -48.6304
-40.8818 -48.0539
-39.0284 -48.0092
-38.1282 -47.5718
-37.2573 -48.222
-36.2626 -47.615
-35.331 -47.1436
-34.4326 -47.7186
-33.5446 -47.2312
-32.6144 -47.7875
-30.6413 -47.9034
-29.7633 -48.4173
-29.2763 -47.5419
-27.7343 -48.706
-26.6885 -48.6761
-26.1231 -47.8475
-25.0605 -47.797
-24.0618 -47.7096
-22.9602 -47.7723
-22.4363 -48.732
-21.4146 -48.8467
-20.3269 -48.7827
-19.1982 -48.7416
-18.1943 -48.7564
-17.032 -48.94
-16.0015 -48.8832
-14.9641 -48.8389
-13.7227 -48.9844
-12.7299 -49.1178
-10.7059 -48.8789
-10.2408 -49.8136
-9.68746 -48.9288
-9.03747 -49.9025
-7.57109 -48.9177
-6.46494 49.3103
-5.91259 -49.7965
-4.13279 -48.9535
-3.73895 -49.9103
-3.12145 -49.0685
-1.49714 49.9694
-1.0061 -49.1216
0.1352 -48.8825
0.429948 -47.8497
3.07319 -48.1871
3.97293 -47.7376
4.85044 -48.2099
5.73233 -47.6551
6.60674 -48.2278
7.59726 -48.588
8.47571 -48.0858
9.45402 -48.6347
11.2464 -48.5804
12.1483 -49.1653
13.1597 -48.6027
14.0619 -49.1459
15.0255 -48.6164
15.8722 -49.2022
16.762 -48.7453
17.6322 -49.3715
18.5696 -48.8072
19.3977 -48.2528
20.3356 -48.9703
21.3321 -49.6005
22.1935 -49.0745
23.0406 -48.5448
24.2259 -48.9681
25.1029 -48.4981
25.9819 -48.9886
26.9133 -48.5015
28.7756 -48.5596
29.6578 -47.9407
30.586 -47.5924
31.4765 -48.1883
32.2967 -47.6097
33.2976 -48.1855
34.1874 -47.5511
35.91 -48.7209
36.8785 -49.2281
36.939 -48.2349
37.9096 -48.7743
38.8455 -48.2467
39.6928 -48.8121
40.6631 -48.3358
41.5305 -48.8654
42.438 -48.356
43.3422 -48.8146
45.2994 -47.9901
46.2234 -48.6225
47.1096 -48.0291
48.9837 -48.1148
48.9997 -47.0809
49.9509 -46.6645
-49.1301 -47.1582
-48.2077 -46.6651
-47.3409 -47.173
-46.403 -46.6973
-45.4567 -46.2468
-44.5425 -46.7406
-43.6588 -46.2271
-42.6068 -46.894
-41.6931 -47.3538
-40.7764 -46.9157
-39.9593 -47.5251
-38.9457 -46.9453
-37.1975 -47.0807
-36.2417 -46.6038
-35.2934 -46.1116
-34.4204 -46.6219
-33.5002 -46.1499
-31.6775 -48.3409
-30.3372 -46.9315
-29.4978 -46.3403
-28.5784 -46.8083
-28.167 -47.7151
-27.1418 -47.786
-26.5535 -46.9484
-25.5406 -46.8064
-24.5239 -46.8262
-23.4902 -46.8776
-21.8616 -47.817
-20.8586 -47.8173
-19.8467 -47.9094
-18.8007 -47.8244
-17.6483 -47.9073
-16.4878 -47.9699
-15.4172 -47.8831
-14.3691 -47.9315
-13.3714 -47.9912
-12.353 -48.1169
-11.157 -47.9714
-10.1586 -48.0039
-9.03488 -48.0677
-8.57439 -48.9658
-8.03053 -47.9849
-6.98478 -49.824
-5.32191 -48.9059
-4.64604 -48.0882
-4.13648 -47.2111
-3.59584 -48.0978
-2.58769 -48.0826
-2.12135 -49.0584
-0.549556 -48.13
1.32745 -47.1613
2.98144 -47.1678
3.90396 -46.7285
4.89446 -47.0653
5.7954 -46.5307
6.61611 -47.1228
7.50629 -47.5735
9.46269 -47.6091
10.3645 -48.0496
11.3475 -47.5367
12.2758 -48.1325
13.289 -47.5614
14.1358 -48.141
15.0336 -47.6166
15.945 -48.176
16.8188 -47.616
17.6224 -48.24
18.5366 -47.6747
19.5264 -47.2411
20.3732 -47.9389
21.2261 -48.4858
22.1539 -48.0679
23.1319 -47.4384
23.9997 -48.0014
25.0154 -47.4948
25.99 -47.9878
26.7871 -47.3344
27.7995 -48.0523
28.6256 -47.438
29.506 -46.888
30.5972 -46.4039
31.3909 -47.0033
33.23 -47.0985
34.2126 -46.527
34.9528 -48.1961
36.0206 -47.644
36.988 -47.2068
37.9448 -47.7386
38.8795 -47.1844
39.7175 -47.7385
40.6199 -47.299
41.5332 -47.781
42.4998 -47.3135
43.3639 -47.8156
44.3225 -47.427
46.2456 -47.5002
47.1682 -46.9851
48.0494 -47.5444
48.1085 -46.4754
-50.0006 -45.5508
-49.0571 -46.1443
-48.2043 -45.5665
-47.3279 -46.1677
-46.253 -45.5576
-45.3399 -45.0315
-44.5683 -45.7355
-43.5773 -45.2062
-42.6524 -45.6754
-41.7629 -46.3078
-40.822 -45.927
-39.8189 -46.4278
-38.9512 -45.8746
-38.0469 -46.4908
-37.123 -46.0729
-36.1497 -45.5051
-34.4355 -45.5891
-32.5537 -45.6691
-32.6721 -46.7165
-31.6844 -47.3173
-30.6569 -45.9542
-29.7439 -45.3763
-28.3859 -45.8294
-27.5536 -46.8605
-27.1774 -45.9406
-26.141 -45.9395
-25.03 -45.9114
-23.9921 -45.9817
-22.4203 -46.936
-21.3863 -46.8159
-20.3677 -46.9051
-19.3645 -46.9615
-18.2266 -46.9556
-17.0804 -47.0511
-16.084 -46.9915
-15.0043 -46.9154
-13.8752 -47.0011
-12.835 -47.0112
-11.632 -46.9838
-10.6476 -47.1154
-9.59914 -47.1436
-8.57484 -47.1075
-7.51647 -47.1133
-6.45283 -48.8664
-5.80139 -48.0159
-5.14953 -47.1987
-3.5074 -46.2702
-2.98896 -47.134
-1.74835 -47.2034
-0.664894 -47.01
0.347875 -46.8335
2.14358 -46.5995
3.08753 -46.1188
3.89844 -45.4208
4.66172 -46.0777
6.76624 -46.0707
7.63999 -46.5802
8.63731 -47.0478
9.53006 -46.5996
10.4819 -47.0247
11.39 -46.513
12.3401 -46.9833
13.1957 -46.465
14.1476 -47.0298
15.0834 -46.599
15.9204 -47.1706
16.837 -46.6007
17.6968 -47.1346
18.6297 -46.6273
19.5618 -46.1584
20.5222 -46.8018
21.2749 -47.4661
22.2162 -47.0442
23.0736 -46.4199
23.983 -46.9096
24.9293 -46.405
25.8346 -46.9119
26.7944 -46.3248
27.7221 -46.9645
28.6167 -46.4099
29.6243 -45.8332
31.5164 -45.9599
32.4047 -46.5096
33.2552 -45.9468
35.2588 -46.0677
35.115 -47.1358
36.0807 -46.6351
37.0799 -46.1816
38.0124 -46.6416
38.9931 -46.0771
39.8007 -46.7087
40.6988 -46.1298
41.5317 -46.6968
42.4696 -46.3089
43.4635 -46.8101
44.3776 -46.4248
45.3566 -46.996
46.2324 -46.4952
47.1557 -45.9695
49.0512 -45.9628
49.0722 -44.9459
-49.1121 -45.0456
-48.1156 -44.5477
-47.2756 -45.1
-46.2671 -44.5275
-45.2931 -44.0348
-44.4157 -44.6132
-43.4971 -44.1821
-42.5903 -44.596
-41.6734 -45.2338
-40.7663 -44.753
-39.8785 -45.3147
-38.9812 -44.8371
-38.0303 -45.4863
-37.1183 -45.0452
-36.2303 -44.4995
-35.2906 -44.9977
-34.3501 -44.5623
-33.5243 -45.1261
-31.6917 -46.3147
-31.6337 -45.2636
-30.6665 -44.8958
-28.7686 -44.869
-27.6671 -45.0602
-26.6397 -45.025
-25.5677 -44.9701
-24.463 -45.0846
-22.9435 -45.9867
-21.9151 -45.927
-20.8008 -45.9663
-19.7669 -46.0347
-18.6454 -46.0241
-17.6118 -46.139
-16.5698 -46.0817
-15.5606 -46.0772
-14.4084 -46.1148
-13.3669 -46.1212
-12.244 -46.1202
-11.2214 -46.0617
-10.1738 -46.1493
-8.97664 -46.1998
-7.83275 -46.1009
-6.84045 -46.1895
-6.99115 -47.9754
-6.30929 -47.1155
-4.58706 -46.2627
-2.36524 -46.2509
-1.27204 -46.1246
-1.57968 -48.2078
0.122548 -45.8521
1.16211 -46.1235
2.18676 -45.5791
3.02208 -44.9292
4.80872 -44.9824
5.7295 -45.511
6.63254 -45.0672
7.67255 -45.5451
8.57499 -46.049
9.51553 -45.4737
10.3979 -45.9598
11.2971 -45.4359
12.2779 -45.9674
13.23 -45.4331
14.1458 -46.0316
15.0452 -45.5774
15.9359 -46.064
16.8471 -45.5954
17.7458 -46.0858
18.6381 -45.5343
19.6037 -45.1039
20.5861 -45.7509
21.4213 -46.3425
22.2631 -45.7859
23.2121 -45.3143
24.0423 -45.8821
24.8999 -45.2742
25.9021 -45.8632
26.9064 -45.2845
27.7844 -45.8462
28.6725 -45.3642
29.5974 -44.8384
30.5127 -45.3625
32.3866 -45.4525
33.3762 -44.9543
34.4061 -45.5257
35.264 -45.0259
36.2069 -45.4669
37.1606 -45.0572
38.0491 -45.6128
38.9275 -45.0022
39.8658 -45.5744
40.7862 -45.1281
41.6506 -45.6745
42.6199 -45.3228
43.5914 -45.8078
44.495 -45.3795
45.3631 -45.9642
46.3215 -45.4158
47.3352 -44.9533
48.2048 -45.4276
-49.9731 -44.4311
-49.0826 -43.9425
-48.1365 -43.5247
-47.1742 -44.03
-46.175 -43.5316
-45.2922 -42.9645
-44.3994 -43.5329
-43.4182 -43.0894
-42.5403 -43.5973
-41.6109 -44.1249
-40.716 -43.6586
-39.8441 -44.2555
-38.9004 -43.8066
-37.9971 -44.4803
-37.1261 -43.9553
-36.1732 -43.4557
-35.298 -43.9632
-33.4032 -44.0964
-32.5361 -43.6084
-32.5061 -44.6568
-31.587 -44.261
-30.6825 -43.8166
-29.6301 -44.3627
-28.27 -43.941
-27.2465 -44.0561
-26.0962 -44.0396
-25.045 -44.0061
-23.4227 -45.0006
-22.3361 -44.9721
-21.3308 -45.1113
-20.2336 -45.1429
-19.1849 -45.134
-18.0654 -45.2067
-16.9977 -45.1805
-15.9778 -45.1064
-14.9645 -45.2635
-13.9508 -45.1072
-12.8515 -45.2257
-11.7711 -45.2144
-10.6919 -45.1912
-9.6124 -45.3264
-8.5487 -45.288
-7.35179 -45.2168
-6.11975 -45.4416
-5.60632 -46.2993
-4.04592 -45.3672
-2.9161 -45.4051
-1.89815 -45.3145
-0.710666 -45.1272
0.260676 -44.8589
1.2716 -45.0949
2.10179 -44.4954
3.88459 -44.4223
4.85191 -43.9288
5.78633 -44.4777
6.69238 -44.0017
7.66931 -44.4722
8.59316 -45.0134
9.43092 -44.4336
10.4216 -44.9097
11.3372 -44.4191
12.2163 -44.9253
13.1939 -44.4074
14.1279 -44.9398
15.0821 -44.5541
16.049 -44.9715
16.8697 -44.3972
17.6838 -45.0016
18.5775 -44.5315
19.6056 -44.0672
20.4932 -44.6543
21.3971 -45.0815
22.3809 -44.6946
23.1817 -44.0104
24.0343 -44.6776
24.977 -44.2334
25.9934 -44.7422
26.8789 -44.2507
27.8059 -44.8384
28.6962 -44.3369
30.5159 -44.3281
31.5316 -44.9429
32.476 -44.442
33.5147 -43.8389
34.2849 -44.5086
35.2244 -43.9143
36.0881 -44.4571
37.1946 -43.9775
38.0548 -44.4778
38.9637 -43.8923
39.8679 -44.5623
40.8529 -44.0369
41.819 -44.6842
42.7804 -44.2968
43.6846 -44.7441
44.584 -44.3031
45.4172 -44.9618
46.3864 -44.3875
48.2358 -44.3939
49.1303 -43.9467
-49.9605 -43.4373
-48.971 -42.8625
-48.0535 -42.3939
-47.2079 -43.0228
-46.2383 -42.5257
-45.2926 -41.9579
-44.2557 -42.5168
-43.2878 -42.0577
-42.4243 -42.5716
-41.5662 -43.1027
-40.5939 -42.5446
-39.7677 -43.2122
-38.8442 -42.7451
-37.9852 -43.3728
-37.0171 -42.9197
-36.1635 -42.3735
-35.2786 -42.9185
-34.377 -43.5481
-33.3824 -43.0643
-32.4264 -42.5579
-31.5426 -43.2089
-29.7894 -43.3669
-28.8304 -42.9691
-27.7224 -42.9938
-26.7369 -43.2027
-25.5928 -43.149
-24.0509 -44.1296
-22.7319 -44.043
-21.7327 -44.1423
-20.7329 -44.2157
-19.6534 -44.128
-18.6122 -44.2106
-17.6091 -44.2893
-16.5058 -44.2566
-15.2657 -44.2813
-14.2731 -44.0906
-13.2807 -44.2825
-12.2482 -44.2033
-11.2426 -44.3546
-10.1437 -44.3412
-9.08363 -44.3825
-7.96522 -44.427
-6.84368 -44.2937
-5.81763 -44.3961
-5.20751 -43.4696
-5.04888 -45.1366
-3.18313 -43.4649
-2.41669 -44.0964
-1.42118 -44.4133
-0.136919 -43.9321
1.04775 -44.0187
1.97466 -43.4827
2.91491 -43.8709
3.81266 -43.4028
5.77798 -43.4606
6.67996 -42.8407
7.54904 -43.3996
8.45751 -43.823
9.36096 -43.4009
10.3083 -43.8801
11.2593 -43.4009
12.1865 -43.8386
13.1786 -43.2918
14.0626 -43.8945
15.0199 -43.3981
15.8876 -43.9582
16.8679 -43.3714
17.7483 -43.9279
18.7015 -43.4558
19.6223 -43.0689
20.5283 -43.6139
21.4512 -44.0806
22.2574 -43.4799
23.3503 -43.023
24.1208 -43.6633
25.0641 -43.1831
26.0095 -43.7216
26.8695 -43.185
27.7379 -43.6811
28.7325 -43.2514
29.6106 -43.8036
30.5991 -43.3085
31.5042 -43.9382
32.6025 -43.4272
34.4063 -43.3446
35.3194 -42.7669
36.1023 -43.3796
37.1337 -42.8888
38.0299 -43.3747
39 -42.899
39.9359 -43.5545
40.952 -43.0441
41.8039 -43.6354
42.8061 -43.25
43.7347 -43.744
44.6906 -43.2401
45.5786 -43.7647
46.4738 -43.3177
47.3977 -43.8069
48.2721 -43.3082
49.2601 -42.7766
-49.8719 -42.2385
-48.9511 -41.7813
-47.1519 -41.8622
-46.21 -41.4343
-45.1217 -40.9408
-44.2933 -41.5193
-43.3524 -41.0571
-42.435 -41.5441
-41.529 -42.1074
-40.5767 -41.4767
-39.6603 -42.1451
-38.6907 -41.6234
-37.9286 -42.3313
-37.0118 -41.8342
-36.0324 -41.268
-35.1469 -41.8558
-34.2431 -41.3952
-34.3114 -42.4379
-33.2687 -42.0047
-31.5053 -42.166
-30.6472 -42.7639
-29.5669 -42.1594
-28.2786 -42.1109
-27.2245 -42.1157
-26.1429 -42.2568
-24.5007 -43.15
-23.3659 -43.2679
-22.3909 -43.038
-21.2404 -43.2667
-20.1917 -43.2594
-19.1568 -43.2058
-18.064 -43.3644
-16.9543 -43.3486
-15.9425 -43.4288
-14.8704 -43.2561
-13.8066 -43.1859
-12.7437 -43.3039
-11.6645 -43.3741
-10.5763 -43.3495
-9.58483 -43.4966
-8.4957 -43.5666
-7.44867 -43.4778
-6.31587 -43.4338
-4.96413 -42.4795
-4.50792 -44.2314
-3.49702 -44.452
-2.42438 -42.8178
-1.60231 -43.4261
-0.557944 -42.9792
1.12131 -42.9587
2.05231 -42.4592
2.97972 -42.8549
3.90277 -42.4145
4.8273 -42.9214
5.72868 -42.433
6.6301 -41.8411
8.4506 -42.8289
9.42752 -42.3834
10.3869 -42.8568
11.2687 -42.378
12.2303 -42.7864
13.1446 -42.2736
14.0858 -42.8467
14.9986 -42.3979
15.9663 -42.902
16.8166 -42.362
17.7456 -42.8858
18.6397 -42.4154
19.5511 -41.9906
20.4851 -42.5528
21.3525 -43.0458
22.2772 -42.4402
23.2293 -42.0215
24.2261 -42.5041
25.0505 -41.8959
26.041 -42.5838
26.9259 -41.9829
27.8471 -42.6506
29.8134 -42.6851
29.5891 -41.5818
30.8005 -42.3327
31.6485 -42.8987
33.4469 -42.8406
34.4284 -42.2877
35.2819 -41.7675
36.1864 -42.2615
37.1287 -41.8169
38.0155 -42.3777
38.96 -41.8817
40.0816 -42.4407
41.0128 -42.0015
41.9879 -42.6556
42.8778 -42.0594
43.7191 -42.7296
44.7842 -42.1929
45.6421 -42.7003
46.5226 -42.1361
47.3732 -42.7481
48.3415 -42.2748
49.2191 -41.748
-49.8155 -41.1948
-48.0277 -41.2967
-47.0675 -40.8098
-46.0298 -40.4307
-45.1178 -39.8946
-44.2168 -40.4487
-43.3293 -39.9908
-42.4318 -40.4806
-41.5026 -41.0992
-40.5034 -40.4781
-39.6617 -41.0501
-38.7352 -40.5994
-37.7609 -41.112
-36.8016 -40.5334
-35.8593 -40.1536
-35.0994 -40.8323
-34.0933 -40.3098
-33.2688 -40.9541
-32.3306 -41.445
-31.4077 -40.9668
-30.6086 -41.7186
-28.6958 -41.1635
-27.669 -41.0794
-26.6551 -41.2778
-24.9904 -42.2598
-23.9748 -42.2781
-22.8466 -42.1357
-21.7829 -42.2255
-20.7009 -42.3728
-19.7145 -42.2381
-18.6145 -42.354
-17.6105 -42.4589
-16.5484 -42.4291
-15.4972 -42.4361
-14.4592 -42.3388
-13.3931 -42.2752
-12.3079 -42.4011
-11.228 -42.4487
-10.0694 -42.4736
-9.0365 -42.6268
-8.04004 -42.5571
-6.92015 -42.6117
-5.9538 -42.3344
-4.4511 -40.8127
-4.11903 -43.1373
-3.37844 -42.3762
-3.33152 -41.3466
-1.40211 -42.4428
-0.722686 -41.717
0.190059 -42.2923
1.11237 -41.7614
2.84406 -41.7406
3.83202 -41.3233
4.8293 -41.9084
5.76157 -41.3103
7.57919 -41.3241
7.54357 -42.3301
9.45079 -41.3278
10.3302 -41.843
11.3988 -41.2596
12.2474 -41.7805
13.1423 -41.1665
14.1518 -41.8142
15.0495 -41.3179
15.9463 -41.8263
16.8503 -41.2834
17.7774 -41.7531
18.7681 -41.3567
19.613 -40.7917
20.4318 -41.4449
21.3106 -42.001
22.2672 -41.3986
23.1962 -40.9879
24.1314 -41.372
25.1596 -40.8765
26.0268 -41.4255
26.9913 -40.9793
27.8668 -41.5663
28.7225 -42.0972
29.7713 -40.4968
30.6927 -41.1142
31.6092 -41.6703
32.5371 -42.2611
33.4652 -41.6822
35.3237 -40.7144
36.2602 -41.2445
37.1694 -40.7398
38.0925 -41.3833
39.0792 -40.8917
39.9523 -41.4172
40.9293 -40.9791
41.9489 -41.5224
42.8208 -41.0219
43.857 -41.5189
44.8173 -41.0596
45.6917 -41.5594
46.5761 -41.0876
47.4227 -41.691
48.3467 -41.2224
49.2506 -40.644
-49.8024 -40.1472
-48.9096 -40.7192
-47.998 -40.2743
-46.9675 -39.7671
-46.0482 -39.3846
-45.0572 -38.7471
-44.2334 -39.3246
-42.4017 -39.3738
-41.5296 -40.0062
-40.5451 -39.4348
-39.5421 -39.9727
-38.6218 -39.4962
-37.7566 -40.0979
-36.8433 -39.5234
-35.9274 -39.075
-34.9553 -39.6994
-34.1063 -39.1653
-33.1646 -38.6903
-33.2247 -39.709
-32.3058 -40.4242
-29.6893 -41.1589
-29.4249 -40.167
-28.2949 -40.1824
-27.2727 -40.1028
-25.6324 -41.1646
-24.5779 -41.3395
-23.3959 -41.2541
-22.3546 -41.2454
-21.3021 -41.3382
-20.2976 -41.2441
-19.2088 -41.3121
-18.211 -41.4385
-17.1305 -41.5195
-16.0758 -41.5127
-14.9614 -41.4752
-13.9699 -41.2534
-12.7438 -41.3655
-11.7019 -41.5754
-10.5676 -41.5367
-9.54832 -41.5665
-8.5062 -41.6068
-7.45416 -41.3877
-6.42774 -41.4074
-5.337 -41.4229
-4.4085 -39.7517
-4.2147 -41.8052
-2.42477 -41.7721
-1.58049 -41.2108
-0.69214 -40.7161
0.194445 -41.2299
1.09144 -40.7596
2.00897 -41.1775
2.95109 -40.7157
4.81009 -40.8152
5.72043 -40.3137
6.64284 -40.7747
8.50363 -41.7671
9.32459 -40.2614
10.5096 -40.823
11.4182 -40.1663
12.2486 -40.71
13.2342 -40.1172
14.1969 -40.7536
15.0007 -40.1627
15.8985 -40.7996
16.7729 -40.1584
17.6904 -40.6987
18.6719 -40.1944
19.5757 -39.6641
20.4392 -40.2007
21.2999 -40.9351
22.3195 -40.3986
23.238 -39.8689
24.2803 -40.3779
25.1882 -39.8599
26.0529 -40.4018
26.9767 -39.9677
27.9049 -40.3967
28.7361 -40.9673
29.8807 -39.4817
30.812 -40.0221
31.6739 -40.5657
32.4971 -41.1621
34.3972 -41.2329
35.3309 -39.7092
36.2915 -40.1941
37.2251 -39.6898
38.0881 -40.2465
39.0134 -39.8655
39.9758 -40.3727
40.8961 -39.9491
41.8245 -40.484
42.8515 -39.9785
43.752 -40.4747
44.683 -39.8907
45.6449 -40.4161
46.5348 -39.9508
47.5235 -40.5929
48.402 -40.0809
49.44 -39.4872
-49.667 -39.0406
-48.878 -39.6842
-48.0321 -39.0929
-46.8982 -38.7016
-45.968 -38.3227
-44.1818 -38.2397
-43.2311 -38.7893
-42.2712 -38.2927
-41.3812 -38.8448
-40.475 -38.4223
-39.5946 -38.9455
-38.6811 -38.409
-37.6944 -38.9877
-36.8345 -38.4805
-35.9904 -37.9299
-35.0294 -38.6513
-34.0436 -38.0891
-33.1089 -37.675
-32.2957 -39.2626
-31.3852 -39.7641
-30.4561 -40.4916
-29.0442 -39.1576
-27.911 -39.1586
-26.2639 -40.232
-25.0357 -40.3602
-24.0262 -40.3497
-22.9692 -40.2522
-21.9464 -40.2917
-20.9379 -40.3536
-19.8461 -40.2869
-18.7284 -40.4377
-17.6368 -40.5129
-16.5951 -40.5112
-15.5627 -40.4794
-14.5698 -40.429
-13.4347 -40.3639
-12.3067 -40.4438
-11.2725 -40.6232
-10.1526 -40.5387
-9.05017 -40.678
-8.01564 -40.4962
-6.96454 -40.46
-6.35475 -39.6622
-5.45485 -40.1812
-4.39867 -38.6055
-3.48641 -40.3552
-2.5536 -40.7072
-1.55054 -40.2071
-0.703471 -39.6458
0.171882 -40.1792
1.19222 -39.6736
2.10125 -40.1393
3.87646 -40.2796
4.8455 -39.8151
6.62186 -39.6845
7.53526 -40.2882
8.46347 -40.7739
9.4679 -39.2015
10.2344 -39.8477
11.3704 -39.1002
12.2452 -39.6185
12.2326 -38.5247
14.1476 -39.6386
15.0453 -39.1361
15.8992 -39.6689
16.7949 -39.1545
17.7583 -39.7004
18.634 -39.1618
19.5545 -38.6079
20.5091 -39.1073
21.3907 -39.7565
22.3047 -39.3112
23.3941 -38.8621
24.2641 -39.3682
25.1455 -38.8394
26.1765 -39.3534
27.0832 -38.92
27.972 -39.3847
28.8934 -39.9779
30.7363 -38.8639
31.7126 -39.4469
32.5884 -40.1486
33.5208 -40.6398
34.3684 -40.035
35.427 -38.6773
36.2954 -39.189
37.2597 -38.6525
38.116 -39.2148
39.0247 -38.7537
39.889 -39.375
40.8578 -38.8094
41.9737 -39.4535
42.8292 -38.8342
43.697 -39.4411
44.7061 -38.8772
45.5845 -39.3534
46.5176 -38.9529
47.4632 -39.5804
48.4236 -39.0453
49.4214 -38.4894
-49.7025 -38.0098
-48.7907 -38.4342
-47.7714 -38.1253
-46.8667 -37.6539
-45.9303 -37.1016
-45.0631 -37.7476
-43.176 -37.6652
-42.2516 -37.2822
-41.3708 -37.8113
-40.424 -37.3639
-39.5631 -37.9471
-38.6524 -37.4137
-37.6974 -37.971
-36.8252 -37.3794
-35.8689 -36.9112
-35.0441 -37.4828
-34.0519 -36.9674
-32.228 -37.1191
-32.2479 -38.2604
-31.3796 -38.7653
-29.5419 -38.251
-28.3984 -38.2545
-26.7962 -39.1442
-25.8095 -39.3311
-24.7014 -39.4055
-23.6123 -39.422
-22.5097 -39.3376
-21.8908 -38.3805
-21.5044 -39.3784
-20.2791 -39.3539
-19.2663 -39.4498
-18.2564 -39.5573
-17.1778 -39.5858
-16.149 -39.5734
-15.0783 -39.4887
-14.0466 -39.5532
-12.8328 -39.5369
-11.7932 -39.5817
-10.7992 -39.7274
-9.77808 -39.6241
-8.60099 -39.6838
-7.37809 -39.514
-6.13041 -38.6817
-5.2419 -39.1841
-3.50797 -38.0353
-2.48056 -39.6823
-2.55999 -38.5532
-1.65031 -39.0775
-0.680126 -38.6514
0.238439 -39.1638
1.15276 -38.5693
2.02296 -39.0769
2.96053 -39.6135
3.87895 -39.228
6.61742 -38.6564
7.48213 -39.1765
8.4726 -39.6461
9.49585 -38.0903
10.3697 -38.6597
11.3372 -37.9627
13.1959 -38.0175
14.064 -38.523
13.1999 -39.1066
14.9828 -37.9859
15.9087 -38.6203
16.8692 -38.1026
17.7432 -38.612
18.5996 -38.0979
19.6544 -37.5769
20.5216 -38.1052
21.4703 -38.7461
22.4415 -38.3156
23.2828 -37.7538
24.2761 -38.3537
25.1366 -37.7992
26.126 -38.3537
27.0585 -37.8364
27.9667 -38.3655
28.9145 -38.9813
29.822 -38.468
31.5816 -38.3376
32.6563 -38.9887
33.436 -39.6156
34.4255 -38.9752
35.392 -37.6389
36.2991 -38.1794
37.2469 -37.6315
38.1434 -38.1733
39.0612 -37.6663
39.9333 -38.306
40.9748 -37.8028
41.8339 -38.454
42.9184 -37.7996
43.7906 -38.3483
44.6699 -37.8507
45.5643 -38.3121
46.4981 -37.9502
47.4938 -38.5461
48.4104 -38.0257
49.4051 -37.4638
-49.6714 -36.8052
-48.8691 -37.4255
-47.7889 -37.0158
-46.8904 -36.5333
-44.991 -36.7152
-44.1345 -37.2427
-43.3159 -36.6468
-42.3731 -36.1824
-41.4021 -36.7401
-40.3362 -36.2731
-39.5391 -36.8752
-38.6271 -36.349
-37.6996 -36.8565
-36.8525 -36.2965
-35.8215 -35.8919
-34.9476 -36.4136
-34.014 -35.962
-33.1356 -36.5728
-31.3306 -36.6609
-31.403 -37.6988
-30.0563 -39.3391
-28.9326 -37.3195
-27.351 -38.281
-26.1858 -38.2336
-25.1506 -38.5136
-24.155 -38.5715
-22.947 -38.4374
-22.4735 -37.5582
-20.898 -38.5574
-20.2529 -37.5934
-19.7527 -38.5051
-18.7577 -38.5721
-17.6167 -38.6445
-16.5537 -38.581
-15.544 -38.5758
-14.4319 -38.6251
-13.4242 -38.6982
-12.3964 -38.5923
-11.2959 -38.681
-10.2805 -38.7663
-9.08648 -38.7403
-8.09045 -38.809
-7.10559 -38.4463
-5.31258 -38.0559
-4.39999 -37.539
-3.40095 -39.2876
-2.63711 -37.4991
-1.65735 -38.0645
-0.759413 -37.5857
0.254199 -37.9779
1.1379 -37.4828
3.79784 -38.0788
4.76897 -38.7589
5.75625 -39.1822
5.69462 -38.1761
6.55805 -37.5053
8.61285 -38.6548
8.53372 -37.5953
10.3597 -37.6128
11.1595 -36.9579
12.2434 -37.4998
13.0819 -36.9432
14.0825 -37.5147
15.0279 -36.9037
15.941 -37.5801
16.7901 -37.0075
17.7162 -37.5019
18.6678 -37.0926
19.6238 -36.5494
20.538 -37.1046
21.4185 -37.6745
22.3619 -37.1481
23.2716 -36.7421
24.2037 -37.3277
25.2099 -36.707
26.0731 -37.2409
27.0997 -36.8385
28.0601 -37.3568
28.9303 -37.8717
29.7989 -37.3122
30.6774 -37.851
32.5468 -37.9469
33.5311 -38.5055
34.3767 -37.9738
35.4667 -36.596
36.3483 -37.1093
37.2818 -36.6323
38.1818 -37.1639
39.1364 -36.6739
40.1124 -37.292
41.0373 -36.7647
41.9625 -37.3598
42.9399 -36.7077
43.7672 -37.2627
44.6679 -36.7789
45.6959 -37.2861
46.6035 -36.8741
47.4949 -37.5244
48.4246 -36.8651
49.3688 -36.4342
-49.4106 -35.7776
-48.6435 -36.4111
-47.7284 -35.9888
-45.9912 -36.0311
-45.0424 -35.523
-44.1865 -36.1085
-43.2302 -35.6523
-42.3073 -35.1809
-41.4174 -35.6506
-40.4361 -35.2121
-39.5219 -35.6843
-38.5813 -35.1997
-37.7111 -35.717
-36.6128 -35.2282
-35.7238 -34.7688
-34.9239 -35.3876
-33.1028 -35.5513
-32.1782 -36.0822
-30.4358 -36.1618
-30.5463 -38.2054
-30.1328 -37.2878
-27.8416 -37.3629
-26.6566 -37.344
-25.5814 -37.3666
-24.5706 -37.5874
-23.4707 -37.5808
-22.9786 -36.6363
-21.8943 -36.6467
-21.2628 -37.5898
-20.8606 -36.6774
-19.2066 -37.6185
-18.1181 -37.6585
-17.0588 -37.6678
-16.0514 -37.6404
-14.9596 -37.7639
-13.9337 -37.7213
-12.852 -37.6855
-11.6967 -37.7027
-10.6037 -37.8159
-9.61008 -37.8441
-8.03884 -37.7024
-7.12987 -37.1106
-6.22714 -37.5484
-5.38341 -37.0074
-4.45132 -36.4436
-3.5323 -36.8437
-2.54981 -36.4613
-1.67945 -37.063
-0.794832 -36.4449
0.0572755 -36.9562
2.90581 -38.543
2.9393 -37.5387
3.88877 -37.0192
4.75185 -37.5917
5.75116 -36.8931
7.53113 -37.1657
7.54212 -38.1702
8.546 -36.5773
9.53169 -37.0397
10.3355 -36.3924
12.1799 -36.412
13.2316 -35.8844
14.1038 -36.4488
15.053 -35.9016
15.9436 -36.3922
16.8805 -35.8995
17.7442 -36.4715
18.6352 -36.0361
19.6454 -35.4791
20.503 -36.0297
21.4925 -36.6547
22.3333 -36.1146
23.2637 -35.7093
24.3335 -36.1467
25.1424 -35.5534
26.161 -36.1042
27.0456 -35.5815
28.0062 -36.172
28.8918 -36.7747
30.6697 -36.7824
31.5833 -37.2905
32.5186 -36.8144
33.5088 -37.3977
34.4584 -36.9578
35.4571 -35.4851
36.3834 -36.1147
37.2906 -35.6114
38.2433 -36.1656
39.1715 -35.6241
40.2004 -36.1657
41.1061 -35.6571
41.9718 -36.1851
42.9353 -35.6794
43.8384 -36.1004
44.805 -35.6761
45.6295 -36.2385
46.5477 -35.8587
47.4499 -36.3102
48.5619 -35.8239
49.386 -35.2373
-49.6756 -34.7409
-48.6406 -35.1449
-47.6918 -34.8038
-46.8303 -35.4046
-45.8812 -34.8789
-44.0811 -35.1073
-43.1518 -34.6191
-42.2522 -34.1526
-41.39 -34.6442
-40.5022 -34.1932
-39.5679 -34.6717
-38.6025 -34.1559
-37.4962 -34.6747
-36.5965 -34.2315
-36.336 -32.863
-34.7121 -34.1654
-33.8504 -34.8892
-32.2247 -35.054
-31.1365 -35.3608
-29.4304 -36.374
-28.7639 -35.5586
-28.3326 -36.4845
-27.2504 -36.4018
-26.1427 -36.4477
-25.0994 -36.4751
-24.0954 -36.5502
-23.5952 -35.6733
-22.5058 -35.7528
-21.323 -35.6869
-19.5856 -36.6942
-18.5728 -36.7751
-17.5724 -36.7739
-16.489 -36.7244
-15.4717 -36.7692
-14.4505 -36.732
-13.3249 -36.6596
-12.2645 -36.8662
-11.0424 -36.8436
-9.85074 -36.8755
-8.8244 -37.0804
-7.9665 -36.5663
-7.14718 -35.9474
-6.27874 -36.4681
-5.35981 -35.9864
-4.50755 -35.4194
-3.48553 -35.8461
-2.56593 -35.3574
-1.66709 -35.9389
-0.798706 -35.3503
1.16078 -36.3717
1.98437 -38.0135
2.01375 -36.9411
2.9178 -36.4747
4.81517 -36.4822
5.79769 -35.8981
6.74909 -36.451
7.67811 -36.0519
9.45782 -35.917
10.3395 -35.3088
11.2435 -35.9497
12.153 -35.3109
13.175 -34.8647
14.1644 -35.3192
14.9961 -34.7658
15.8564 -35.3135
16.8167 -34.8049
17.7651 -35.436
18.7636 -34.989
20.5334 -35.0156
21.5565 -34.593
21.447 -35.6195
22.4725 -35.0966
23.3484 -34.6218
24.2078 -35.1425
25.2297 -34.5452
26.1246 -35.0643
27.901 -35.0643
28.9464 -35.6815
29.8014 -36.2881
30.6766 -35.651
31.5789 -36.2912
32.7067 -35.7978
33.6212 -36.4046
34.4899 -35.9175
35.5317 -34.4779
36.4293 -35.0445
37.3252 -34.5323
38.1628 -35.098
39.3518 -34.622
40.2115 -35.1345
41.0942 -34.5768
41.9714 -35.052
42.898 -34.6503
43.8398 -35.0581
44.7666 -34.6799
45.7175 -35.1967
46.6477 -34.7704
47.5423 -35.2459
48.5068 -34.7449
49.4097 -34.227
-49.6359 -33.661
-48.7024 -34.1388
-47.73 -33.7885
-46.787 -34.3108
-45.8732 -33.844
-44.9503 -34.5245
-44.0261 -34.0538
-43.0632 -33.5554
-41.3512 -33.6287
-40.3795 -33.1736
-39.4715 -33.666
-38.5043 -32.6406
-37.6785 -33.6967
-37.382 -32.7363
-35.1136 -32.9648
-33.6708 -33.9114
-32.538 -33.9815
-31.5072 -34.2147
-30.4509 -34.5198
-29.8243 -35.3451
-29.3212 -34.4746
-28.2267 -34.6419
-27.7417 -35.5205
-26.6606 -35.5909
-25.6383 -35.5364
-24.5899 -35.6125
-24.0681 -34.656
-23.0022 -34.762
-21.9668 -34.8904
-20.1897 -35.8983
-19.2002 -35.7283
-18.0689 -35.907
-17.0458 -35.8412
-15.8873 -35.8525
-14.8781 -35.7898
-13.8117 -35.7963
-12.4948 -35.8683
-11.4798 -35.8994
-10.3796 -35.9973
-9.32113 -36.0345
-8.10735 -35.5791
-7.18978 -34.8937
-6.26039 -35.4203
-5.319 -34.8412
-4.41925 -34.4104
-3.49062 -34.8419
-2.60827 -34.2181
-1.62799 -34.7838
-0.753569 -34.2079
0.270331 -35.9184
1.07161 -35.3229
2.01955 -35.7649
2.96786 -35.4376
3.90483 -35.9662
4.82181 -35.4415
6.71493 -35.4156
7.63107 -34.9793
8.52225 -35.4906
9.44911 -34.8115
10.2776 -34.2457
11.2539 -34.8641
12.1758 -34.2807
14.0648 -34.2972
15.0285 -33.7142
15.9162 -34.2548
17.0047 -33.81
17.935 -34.4031
18.838 -33.8781
19.6451 -34.4794
20.5605 -33.9423
21.5379 -33.5823
22.4467 -34.0696
23.3516 -33.6222
24.2533 -34.1275
26.1074 -34.033
27.038 -34.5151
27.9499 -34.0498
28.8129 -34.6288
29.8008 -35.1543
30.7106 -34.6546
31.5891 -35.1762
32.6587 -34.7575
33.6292 -35.4045
34.6019 -34.8365
35.5743 -33.3392
36.3752 -33.9417
37.3396 -33.5386
38.296 -34.0553
39.2344 -33.6039
40.2525 -34.0381
41.1668 -33.5517
42.0376 -34.0501
42.9579 -33.6167
43.9083 -34.0333
44.8699 -33.5959
45.6992 -34.1742
46.6306 -33.7438
47.6245 -34.2452
48.5435 -33.7298
49.4341 -33.0787
-49.3754 -32.5824
-48.4966 -33.1248
-47.5513 -32.6835
-46.7365 -33.2943
-45.6246 -32.8567
-44.8755 -33.5252
-43.8815 -32.9889
-43.0749 -32.3432
-42.1709 -33.0647
-41.128 -32.404
-40.0767 -31.6704
-39.548 -32.5284
-37.9062 -31.7585
-36.8083 -31.7843
-35.7122 -33.7698
-34.1173 -33.0134
-33.0711 -33.0564
-31.9735 -33.1566
-30.833 -33.3806
-29.7949 -33.4298
-28.7783 -33.5004
-27.7461 -33.6566
-27.221 -34.5838
-26.1991 -34.6988
-25.088 -34.6692
-24.5588 -33.7095