ITEM: TIMESTEP
600
ITEM: NUMBER OF ATOMS
10000
ITEM: BOX BOUNDS pp pp pp
-9.9000000000000000e+01 9.9000000000000000e+01
-9.9000000000000000e+01 9.9000000000000000e+01
-1.9800000000000001e+01 1.9800000000000001e+01
ITEM: ATOMS x y
98.9928 -98.9998
-97.0765 -98.9634
-94.8934 98.9914
-93.0126 -98.8666
-91.1287 -98.9657
-89.0532 98.9222
-87.0663 98.9702
-85.0289 98.8206
-83.3938 -98.9259
-81.302 -98.9928
-78.9839 -98.844
-77.1459 98.8448
-75.3162 -98.9666
-73.2301 98.959
-71.2266 98.9049
-69.2027 98.8756
-67.3407 -98.9406
-65.2434 -98.8808
-63.5565 -98.8981
-61.3944 -98.8798
-59.373 98.9694
-57.7268 98.9311
-55.3931 -98.8635
-53.4331 98.8382
-51.523 -98.9174
-49.744 98.9047
-47.5934 -98.9804
-45.4516 -98.9747
-43.4525 98.862
-41.5744 -98.8817
-39.7733 98.9782
-37.5869 98.8518
-35.813 -98.9667
-33.6713 -98.8691
-31.6411 98.9555
-29.8336 98.9356
-27.6083 -98.8891
-25.6708 -98.8714
-23.7536 -98.9202
-21.6589 -98.9277
-19.7301 -98.898
-17.7632 98.8767
-15.8506 -98.9392
-13.9417 -98.9898
-11.7495 98.9275
-9.9973 -98.9408
-8.05797 99.0013
-5.99328 -98.8793
-3.78471 98.8924
-1.98622 98.9035
0.162087 -98.9773
1.99677 98.9458
3.97483 98.9932
5.96037 -98.8881
7.85157 98.8777
9.70617 -98.9574
11.777 -98.9963
13.7852 98.8701
15.9042 -98.8961
17.7911 -99.0103
19.831 -98.9883
21.8603 98.9596
23.7783 98.9927
25.8272 -98.9661
27.7449 98.9729
29.7791 -98.9824
31.7186 98.9005
33.7009 -98.8419
35.6187 98.996
37.7177 98.9115
39.8129 98.9313
41.4139 -98.9859
43.4769 98.9573
45.3991 98.8634
47.5402 -98.8608
49.5476 -98.9127
51.5961 -98.9568
53.3903 98.9654
55.3449 98.9535
57.4724 98.8641
59.4797 98.9726
61.4067 -98.9575
63.4588 -98.8129
65.3153 -98.972
67.3287 98.8841
69.4954 -98.9133
71.2651 98.9573
73.1429 -99.007
75.3859 -98.9799
77.3823 -98.9564
79.1687 98.9092
81.1723 -98.8126
83.0746 98.8916
84.9996 -98.9786
87.088 98.9414
88.9583 98.9801
90.9713 98.9692
93.1395 98.9512
94.8907 98.8448
96.9663 -98.8446
98.9606 -97.0841
-96.7123 -97.0937
-95.02 -97.0753
-93.1145 -96.9834
-91.1212 -96.9048
-89.0664 -96.9316
-87.1562 -97.1546
-85.207 -97.0703
-83.1459 -97.3319
-81.2036 -97.0223
-79.2265 -96.9595
-77.0591 -97.0131
-75.2405 -97.0392
-73.2287 -96.9695
-71.3262 -96.8968
-69.3348 -97.0548
-67.3541 -97.0668
-65.3818 -97.0548
-63.2242 -97.1489
-61.5574 -97.226
-59.3373 -97.2955
-57.3749 -97.0356
-55.4876 -96.915
-53.4855 -97.043
-51.6103 -96.9849
-49.5283 -96.9724
-47.4076 -97.0466
-45.6522 -96.9895
-43.6215 -97.0575
-41.5945 -96.9033
-39.8039 -97.1565
-37.6539 -97.1164
-35.5921 -96.9686
-33.5938 -97.0182
-31.6318 -97.0241
-29.7691 -97.0204
-27.6638 -97.0048
-25.5986 -97.0268
-23.7221 -96.9782
-21.7932 -96.9983
-19.7549 -96.9402
-17.6976 -96.9655
-15.9486 -96.9162
-13.9073 -97.2063
-11.7947 -96.8862
-9.75932 -96.8618
-7.98241 -97.1677
-5.85056 -96.9394
-4.09599 -96.9366
-2.01254 -97.0739
-0.0707062 -96.8997
1.96051 -97.1377
3.93214 -97.0124
6.11299 -97.035
7.90793 -96.9705
10.0026 -97.0299
11.8638 -97.0621
13.9274 -97.027
15.9297 -96.9545
17.8729 -97.0921
19.9389 -97.0206
21.9499 -97.1448
23.8518 -96.9536
25.7625 -97.0768
27.6909 -97.2515
29.7626 -96.9832
31.6844 -97.1105
33.641 -97.0151
35.6124 -97.2352
37.6421 -97.0979
39.6017 -96.9428
41.5808 -97.1209
43.5712 -97.1118
45.5248 -97.1065
47.6664 -97.0758
49.5312 -97.0227
51.5873 -96.8082
53.4226 -96.8782
55.3342 -96.9373
57.4244 -97.188
59.4471 -97.1519
61.4286 -96.9974
63.3971 -96.9174
65.3215 -97.0514
67.4756 -97.0131
69.1758 -96.8876
71.2087 -96.9107
73.3564 -96.9719
75.3344 -97.1697
77.3062 -97.1562
79.2626 -97.0661
81.1957 -96.932
83.1067 -97.2096
85.0678 -96.8387
86.9753 -96.9034
89.0596 -97.217
90.8811 -96.9784
93.112 -96.9179
95.1731 -96.8298
97.052 -97.05
98.9279 -95.0068
-97.0932 -95.1307
-95.0759 -95.0483
-93.0312 -95.0879
-91.0962 -94.9572
-89.2479 -94.9697
-87.2567 -94.8936
-85.1704 -94.8349
-83.2456 -95.1405
-81.3307 -95.0615
-79.279 -95.0927
-77.2692 -95.028
-75.0339 -95.0619
-73.2383 -95.2999
-71.2786 -95.1583
-69.3921 -94.9617
-67.3699 -95.0396
-65.3101 -95.0849
-63.3756 -95.1503
-61.499 -94.8232
-59.3324 -95.0131
-57.4011 -94.9779
-55.3664 -95.2
-53.5624 -95.0006
-51.4358 -94.8799
-49.2699 -95.1612
-47.4904 -95.0052
-45.7105 -95.1621
-43.5451 -95.0464
-41.675 -95.0652
-39.5009 -95.0442
-37.4546 -95.2012
-35.7026 -95.0698
-33.529 -94.9565
-31.6144 -95.1401
-29.7704 -94.8443
-27.6539 -95.0578
-25.685 -95.1586
-23.8543 -94.9935
-21.8241 -95.1269
-19.7488 -94.9516
-18.0248 -94.9751
-15.9628 -94.9182
-13.8184 -95.0944
-11.9888 -95.1188
-9.94335 -94.956
-8.09787 -95.1167
-5.72971 -94.9518
-3.76613 -95.2078
-2.08086 -94.9804
-0.038527 -94.8194
1.99104 -95.0636
4.08507 -95.0375
5.92811 -95.0925
7.81017 -94.9656
10.098 -94.9569
12.0584 -95.1466
13.7988 -95.1299
15.6956 -95.0706
17.905 -94.9662
19.8143 -94.8923
21.8867 -95.0535
23.7407 -94.964
25.7059 -95.1415
27.6777 -94.9911
29.6639 -94.9666
31.6264 -94.7744
33.7837 -94.9936
35.6255 -95.1531
37.5768 -95.0538
39.5067 -94.9635
41.5132 -95.1788
43.579 -95.0958
45.5225 -95.1474
47.5655 -95.1112
49.55 -95.0059
51.541 -95.1335
53.589 -95.027
55.3695 -95.0276
57.424 -95.1071
59.3465 -95.2094
61.4514 -95.1954
63.489 -95.1506
65.3793 -95.0979
67.3934 -95.0698
69.4023 -95.1104
71.2673 -94.9535
73.3778 -95.1127
75.265 -95.1039
77.2475 -94.9612
79.0534 -94.993
81.1885 -95.1118
83.1749 -94.9992
85.1079 -95.104
87.1629 -95.0726
89.0905 -94.932
91.1352 -94.9312
93.0071 -95.1719
95.2385 -95.0832
96.9845 -94.9099
-98.9302 -92.993
-96.9904 -93.0345
-94.9883 -93.1374
-93.1978 -93.221
-91.0676 -93.0739
-89.0018 -93.1015
-86.9827 -93.3124
-85.2992 -93.0865
-83.2215 -93.0018
-81.239 -93.0571
-79.3298 -93.0298
-77.285 -93.1203
-75.3416 -92.9762
-73.3738 -92.8169
-71.3323 -93.0047
-69.3309 -93.0862
-67.4003 -93.0257
-65.2254 -93.1167
-63.2175 -93.0671
-61.4588 -93.3107
-59.6055 -93.0592
-57.4119 -93.0786
-55.3638 -92.9905
-53.58 -93.0037
-51.6032 -93.0848
-49.5041 -93.1471
-47.5319 -93.0752
-45.4746 -93.0838
-43.477 -93.1157
-41.6321 -92.9081
-39.582 -93.0327
-37.594 -93.0478
-35.5952 -93.036
-33.785 -93.1637
-31.434 -93.0411
-29.6851 -93.0054
-27.694 -93.0631
-25.7835 -93.111
-23.645 -93.1636
-21.7045 -93.1997
-19.9043 -93.1354
-17.7665 -93.0719
-15.7277 -93.1701
-13.8415 -93.0001
-11.7617 -92.9925
-9.97662 -93.1169
-7.81748 -93.1124
-5.94909 -93.2812
-3.83414 -93.0488
-1.9434 -93.0433
0.0155214 -93.0045
1.90246 -93.0179
3.9715 -93.1824
5.83192 -93.0601
7.90359 -93.1409
9.79855 -93.1844
11.8889 -93.1336
13.9089 -93.2056
15.7602 -93.107
17.842 -92.9837
19.8814 -92.9669
21.6917 -92.8773
23.7746 -93.1858
25.8493 -92.9311
27.7582 -92.991
29.6583 -92.8671
31.6359 -92.9889
33.5722 -92.9844
35.695 -92.9939
37.7465 -93.1027
39.6071 -92.9425
41.6399 -93.0068
43.4676 -93.0506
45.4974 -93.1464
47.5685 -93.2783
49.3512 -93.1518
51.4733 -93.0065
53.3627 -92.9883
55.4345 -93.1514
57.2978 -92.9429
59.5032 -92.9968
61.2157 -93.0514
63.3787 -93.1101
65.3083 -92.9367
67.475 -93.0196
69.1604 -93.1209
71.4148 -93.0782
73.1542 -92.7802
75.1494 -93.0185
77.0414 -92.9844
79.1606 -93.035
81.3691 -93.2356
83.1644 -92.9111
85.277 -93.0856
87.0704 -93.0881
89.3034 -93.1039
91.1963 -93.1298
92.8814 -93.0199
94.9104 -93.1716
96.9693 -92.988
-99.0041 -91.0001
-96.8538 -91.2705
-95.0024 -91.1275
-92.9769 -91.2083
-91.1141 -91.0465
-88.9705 -91.2044
-87.1491 -90.9222
-85.2152 -91.1331
-82.9772 -91.1458
-81.0181 -91.1454
-79.1837 -91.1277
-77.3026 -91.0216
-75.3999 -91.2206
-73.3947 -91.2545
-71.3771 -90.9581
-69.2932 -91.12
-67.1316 -91.1362
-65.0511 -91.0006
-63.37 -91.2579
-61.4077 -91.0946
-59.4108 -90.9831
-57.5222 -91.0934
-55.489 -91.035
-53.5211 -91.1412
-51.5633 -90.9461
-49.5208 -90.9073
-47.4511 -91.0623
-45.5122 -91.0276
-43.7709 -91.0629
-41.6156 -90.9719
-39.5884 -91.1102
-37.733 -91.0335
-35.5982 -90.9228
-33.6756 -91.0249
-31.8004 -91.087
-29.5705 -91.2276
-27.7671 -91.1147
-25.761 -91.1737
-23.7314 -91.0196
-21.8592 -91.1706
-19.8431 -91.204
-17.8635 -90.9558
-15.8306 -91.1196
-13.9164 -91.1291
-11.9603 -91.2101
-9.97355 -91.067
-7.93084 -91.1307
-6.06504 -91.1087
-4.03196 -91.1508
-1.95463 -91.0853
0.09661 -91.1368
2.01148 -91.1221
3.88033 -90.9955
5.94565 -90.971
7.98285 -91.0806
9.7643 -91.2229
11.8388 -91.03
13.8701 -90.9676
15.7815 -91.1868
17.9236 -91.1081
19.9706 -91.1693
21.8081 -90.9068
23.9361 -91.1251
25.6602 -91.2998
27.8001 -90.85
29.7949 -90.9243
31.748 -91.017
33.649 -90.9994
35.5296 -90.9762
37.5233 -90.8987
39.521 -91.1628
41.4335 -91.0456
43.6321 -91.1174
45.5123 -90.9293
47.5619 -91.1286
49.419 -91.1726
51.5674 -91.0185
53.4064 -90.8837
55.5264 -90.8345
57.4688 -91.1086
59.5095 -91.1174
61.4398 -91.1011
63.595 -91.0762
65.3934 -91.2647
67.3707 -91.2441
69.3457 -91.0837
71.3054 -91.1838
73.2708 -91.1254
75.2304 -91.1235
77.2057 -91.1485
79.1637 -91.0611
81.2486 -91.1447
82.9249 -91.0803
85.0485 -90.9731
87.0142 -91.0836
89.2334 -90.9445
90.8863 -91.0517
93.2208 -91.1965
95.1016 -91.0138
97.1194 -91.0064
98.9834 -89.1487
-96.9847 -89.1278
-94.9515 -89.2119
-93.2108 -89.0732
-90.9919 -88.9223
-88.9944 -89.176
-86.9882 -88.9985
-85.1883 -89.0201
-83.2268 -89.2173
-81.0817 -89.098
-79.2204 -89.0863
-77.2101 -89.1229
-75.2569 -89.2663
-73.2682 -89.2273
-71.4144 -88.9422
-69.2044 -89.0567
-67.4123 -89.1321
-65.2031 -89.0394
-63.3831 -89.2499
-61.4816 -89.1279
-59.3338 -89.0431
-57.4032 -89.049
-55.2755 -89.1814
-53.4136 -89.1977
-51.3945 -89.1414
-49.3959 -89.1383
-47.4588 -89.0823
-45.6622 -88.9826
-43.6174 -88.9897
-41.5943 -89.0038
-39.7601 -89.0863
-37.5037 -89.1725
-35.6233 -89.0716
-33.73 -88.9657
-31.6373 -89.1239
-29.8663 -89.1283
-27.7358 -89.2159
-25.6985 -89.0439
-23.8039 -89.0493
-21.8486 -89.1342
-19.8624 -89.3544
-17.7024 -89.1914
-15.8005 -88.9455
-13.814 -89.1572
-11.8141 -89.0883
-9.85167 -89.1892
-7.84202 -88.9897
-5.97294 -89.1144
-3.85083 -89.1015
-1.82395 -89.1398
0.0732284 -89.4057
1.98295 -89.2114
3.8816 -89.1613
6.072 -88.9952
7.954 -89.1688
9.87139 -89.1115
11.7689 -89.2673
13.9711 -89.1172
15.8654 -89.2345
17.7892 -89.2272
19.8399 -89.2132
21.6027 -89.2046
23.7956 -89.218
25.6225 -89.0567
27.6402 -89.1169
29.7513 -89.0467
31.7892 -89.1471
33.4539 -89.1061
35.4379 -89.0763
37.7127 -88.9781
39.4922 -88.954
41.5679 -89.0252
43.6422 -89.0346
45.6542 -88.9391
47.5202 -89.1295
49.4679 -88.9534
51.6882 -88.979
53.5519 -89.1034
55.4955 -89.0803
57.4256 -89.1986
59.4733 -89.1497
61.2552 -89.0689
63.4143 -89.2087
65.3144 -89.1028
67.2495 -89.1733
69.324 -88.907
71.1792 -89.0425
73.1741 -89.0936
75.0695 -88.8082
77.2132 -89.115
79.1165 -89.036
81.1233 -88.9894
82.9787 -88.9394
84.9949 -88.9937
87.0212 -89.2323
89.2505 -89.0369
91.0695 -89.1553
93.0818 -88.961
95.1064 -89.1063
96.9832 -89.0295
98.9882 -87.1601
-97.0387 -87.1306
-94.9773 -87.0021
-92.9619 -87.0855
-90.8513 -87.0821
-89.2184 -87.023
-87.0363 -87.197
-85.1357 -87.1613
-83.1823 -87.1851
-80.9459 -87.1717
-79.2252 -87.2904
-77.2345 -87.2082
-75.2653 -87.0978
-73.1785 -87.2817
-71.2842 -87.1737
-69.2153 -87.0885
-67.3756 -87.1024
-65.3498 -87.1555
-63.1874 -87.1605
-61.3996 -87.2502
-59.2741 -87.3021
-57.391 -87.094
-55.3858 -87.1853
-53.4234 -87.0974
-51.6286 -87.1464
-49.5179 -87.0927
-47.371 -87.0671
-45.6549 -87.2382
-43.7308 -87.1693
-41.5844 -87.0471
-39.5065 -87.0717
-37.5845 -87.0632
-35.7205 -87.1297
-33.6781 -87.1398
-31.5978 -87.1303
-29.6408 -87.196
-27.6731 -87.1247
-25.6647 -87.037
-23.5125 -87.1264
-21.7389 -87.1008
-19.9242 -87.2393
-17.8188 -87.2061
-15.9007 -86.9571
-13.9189 -87.2675
-11.8825 -87.265
-9.98448 -87.1782
-7.8202 -87.0593
-5.77755 -87.103
-4.12939 -86.915
-1.9257 -87.1846
-0.0197302 -87.0696
2.06077 -87.1178
4.11885 -87.2102
6.02919 -86.9809
7.82829 -87.0598
9.96489 -87.1721
11.7752 -87.1594
13.879 -87.0726
15.8906 -87.0703
17.7966 -87.2599
19.8068 -87.0766
21.853 -87.0875
23.7719 -87.1166
25.7796 -87.0011
27.6416 -86.9645
29.7718 -87.0463
31.5923 -87.0832
33.5827 -87.0666
35.6332 -86.9953
37.5516 -87.0897
39.5756 -87.2555
41.6961 -87.1339
43.4546 -87.0586
45.5341 -87.0045
47.7131 -87.1838
49.4364 -87.1132
51.6849 -87.1246
53.5599 -87.1306
55.5617 -87.1761
57.4028 -87.0202
59.3386 -87.1495
61.4329 -87.2261
63.4641 -86.988
65.3353 -87.227
67.2108 -87.0497
69.4426 -86.9889
71.1187 -87.0598
73.2099 -87.1139
75.3049 -87.1603
77.2391 -86.9722
79.3364 -87.1506
81.1475 -87.0503
83.0862 -86.9961
85.1513 -87.058
86.9598 -87.1254
89.1339 -87.0687
91.0907 -87.0202
92.9934 -87.1088
95.0829 -87.0162
97.1039 -87.096
98.8462 -85.0349
-97.0516 -85.2308
-95.2055 -85.1824
-93.1477 -85.2676
-91.0706 -85.2632
-89.2052 -85.2147
-87.2823 -85.147
-85.125 -85.1547
-83.0997 -85.0742
-81.1134 -85.1889
-79.2142 -85.2308
-77.1246 -85.1842
-75.2348 -85.2349
-73.1513 -85.2293
-71.1988 -85.1387
-69.3768 -85.1259
-67.3248 -85.4062
-65.2709 -85.0972
-63.3648 -85.161
-61.3994 -85.2299
-59.2495 -85.0817
-57.4755 -85.2933
-55.3773 -85.0619
-53.3772 -85.1437
-51.4014 -85.0856
-49.6293 -85.2325
-47.3398 -85.2208
-45.5568 -85.0856
-43.6143 -85.1032
-41.4513 -85.1703
-39.6494 -85.1869
-37.5756 -85.1302
-35.5626 -85.0711
-33.6753 -85.0782
-31.8538 -85.0599
-29.6096 -85.0286
-27.8121 -85.0013
-25.7936 -85.0671
-23.7653 -85.0897
-21.8188 -85.2297
-19.8453 -85.0565
-17.791 -85.3068
-15.8591 -85.1272
-13.7978 -85.0041
-11.8655 -85.0909
-9.90849 -85.169
-7.91957 -85.1857
-5.88389 -85.1831
-3.93455 -85.3228
-2.03718 -85.1445
0.130344 -85.2234
1.95324 -85.0953
4.0238 -85.3564
6.0203 -85.0946
7.80566 -85.2599
9.92135 -85.1601
11.915 -85.2507
13.7947 -85.1781
15.6822 -85.2975
17.8038 -85.1319
19.8437 -85.2062
21.8183 -85.025
23.7737 -84.927
25.7516 -85.1993
27.7059 -85.3369
29.6938 -85.3672
31.8623 -85.3531
33.7857 -85.1058
35.5927 -85.0368
37.6228 -85.3391
39.7169 -84.7173
41.6839 -85.0416
43.5538 -85.0829
45.5458 -85.1466
47.5837 -85.0336
49.5507 -85.1006
51.5896 -85.1301
53.4409 -85.1297
55.4032 -85.0593
57.3526 -85.1939
59.5492 -85.1628
61.4529 -85.1359
63.4564 -85.2308
65.3255 -85.2031
67.4818 -85.1851
69.3925 -85.293
71.3677 -85.0493
73.1142 -85.1164
75.1724 -85.0735
77.1496 -85.2384
79.2232 -85.2245
81.1496 -85.0975
83.1538 -85.0723
85.0653 -85.2853
87.1186 -85.0208
89.1511 -85.1364
90.985 -85.0622
93.0394 -85.1008
95.007 -85.1074
96.7913 -85.1638
-98.9644 -83.2643
-96.9129 -83.0117
-95.1706 -82.995
-92.9619 -83.2459
-91.033 -83.1962
-89.3077 -83.3469
-87.1112 -83.0904
-85.1385 -83.0929
-83.1426 -83.2122
-81.1448 -83.2981
-79.3762 -83.0512
-77.2595 -83.0762
-75.3745 -83.154
-72.9805 -83.2788
-71.345 -83.1101
-69.3449 -83.1868
-67.2726 -83.2083
-65.4156 -83.172
-63.3214 -83.131
-61.4309 -83.2036
-59.553 -83.1518
-57.4212 -83.1114
-55.431 -83.0115
-53.571 -83.1158
-51.4451 -83.157
-49.3829 -83.1748
-47.3278 -83.1992
-45.5547 -83.2205
-43.476 -83.0416
-41.7413 -83.2057
-39.7555 -83.2142
-37.564 -83.0451
-35.6044 -83.0647
-33.5959 -83.2801
-31.7337 -83.3126
-29.7618 -83.2972
-27.6947 -83.0139
-25.7407 -83.3139
-23.6702 -83.1641
-21.9293 -83.0237
-19.7592 -83.1326
-17.8588 -83.2523
-15.8638 -83.2687
-13.6943 -83.1804
-12.0257 -83.0306
-10.0656 -83.145
-7.83659 -83.1415
-5.79648 -83.1851
-3.9294 -83.2127
-1.99066 -83.1934
0.0745034 -83.1621
1.95323 -83.1986
3.96227 -83.1669
5.93244 -83.0722
7.92718 -83.1783
9.89069 -83.1495
11.8721 -83.3053
13.8859 -83.1456
15.8122 -83.2523
17.9139 -83.1344
19.8171 -83.0938
21.8213 -83.2353
23.8142 -83.2573
25.8979 -83.2488
27.6751 -83.3327
29.8338 -83.1572
31.6846 -83.0378
33.5624 -83.2671
35.6521 -83.0748
37.5004 -83.1027
39.7272 -83.1363
41.5627 -83.1116
43.5814 -83.3363
45.5496 -83.1887
47.6186 -83.1193
49.2861 -83.1139
51.4545 -83.1833
53.3896 -83.2647
55.5603 -83.0342
57.4572 -83.1422
59.3878 -83.104
61.5313 -83.4193
63.4291 -83.1437
65.2761 -83.0835
67.2371 -83.2635
69.295 -83.0979
71.3839 -83.3104
73.3165 -83.106
75.4038 -83.254
77.2485 -83.2169
79.2153 -83.1162
81.3048 -83.3757
83.2033 -83.1808
85.0247 -83.1857
87.0495 -83.3734
89.1469 -83.197
90.9756 -83.1558
93.1085 -83.1178
94.9629 -83.2115
96.9176 -83.1844
-98.9555 -81.0983
-96.9983 -81.1898
-95.0926 -81.0704
-92.9574 -81.0995
-91.029 -81.1852
-89.1307 -81.3343
-87.0017 -81.1828
-85.0555 -81.2458
-83.0957 -81.1266
-81.241 -81.1211
-79.3306 -81.1629
-77.2935 -81.0316
-75.0936 -81.1454
-73.2945 -81.2081
-71.4363 -81.1746
-69.3596 -81.1475
-67.4362 -81.2486
-65.2919 -81.2062
-63.319 -81.3001
-61.4414 -81.0962
-59.3984 -81.0222
-57.3127 -81.0912
-55.4759 -81.3327
-53.5096 -81.1555
-51.5037 -81.373
-49.4298 -81.2286
-47.3779 -81.2479
-45.5121 -80.9452
-43.5883 -81.3531
-41.7452 -81.1569
-39.5782 -81.1127
-37.618 -81.3467
-35.6451 -81.2155
-33.4921 -81.2101
-31.612 -81.0932
-29.7223 -81.2031
-27.717 -81.1071
-25.8435 -81.1211
-23.6393 -81.0808
-21.8361 -81.2629
-19.8526 -81.1559
-17.8079 -81.0798
-15.8306 -81.2045
-13.9737 -81.2013
-11.7847 -81.1715
-9.79936 -81.2898
-7.97875 -81.2832
-5.72696 -81.1726
-3.85652 -81.2825
-1.99898 -81.1483
0.111439 -81.1747
2.07456 -81.3215
3.84505 -81.2058
5.85751 -81.3446
8.00061 -81.1204
10.0635 -81.0925
11.7488 -81.1866
13.8325 -81.2567
15.9287 -81.1479
17.7275 -81.0308
19.6727 -81.0733
21.8983 -81.2606
23.6439 -81.2553
25.7448 -81.2476
27.6149 -81.2885
29.795 -81.0959
31.5971 -81.2932
33.675 -81.143
35.7128 -81.2566
37.4694 -81.2601
39.6228 -81.2283
41.7292 -81.1015
43.5899 -81.107
45.593 -80.9865
47.5577 -81.2854
49.543 -81.0041
51.3446 -81.0666
53.5306 -81.2546
55.4017 -80.9962
57.4992 -80.9511
59.2661 -81.1129
61.3151 -81.1653
63.3719 -81.2484
65.356 -81.175
67.2453 -81.1877
69.284 -81.2523
71.3339 -81.1253
73.1544 -81.3098
75.0556 -81.2382
77.2428 -81.2451
79.119 -81.1099
81.2091 -81.0562
83.2011 -81.2681
85.1561 -81.0615
87.2099 -81.2428
89.0962 -81.1513
91.1996 -81.1779
92.8544 -81.1318
95.0914 -81.3255
97.0347 -81.1676
-98.9137 -79.1609
-97.0505 -79.2271
-95.0904 -79.1743
-92.9408 -79.0506
-91.1223 -79.1836
-89.2762 -79.1277
-87.1385 -79.0859
-85.2583 -79.0385
-82.9385 -79.1332
-81.2545 -79.3567
-79.2422 -79.1236
-77.3117 -79.2016
-75.2211 -79.0244
-73.3731 -79.2006
-71.3362 -79.1644
-69.1664 -79.1419
-67.3683 -79.126
-65.3185 -79.2306
-63.239 -79.1522
-61.3345 -79.0253
-59.4504 -79.213
-57.46 -79.1847
-55.4854 -79.3532
-53.4498 -79.1442
-51.4802 -79.3141
-49.4455 -79.2761
-47.376 -79.3224
-45.6903 -79.1683
-43.5243 -79.227
-41.4777 -79.2675
-39.5585 -79.4055
-37.7893 -79.1573
-35.7158 -79.3367
-33.6815 -79.2169
-31.7343 -79.2283
-29.7711 -79.2147
-27.7689 -79.2054
-25.654 -78.9223
-23.6272 -79.1828
-21.8133 -79.4371
-19.7724 -79.0498
-17.7712 -79.1339
-15.9751 -78.9397
-13.9822 -79.195
-11.8803 -79.2954
-10.0253 -79.2366
-8.05721 -79.1458
-6.1134 -79.1918
-4.14268 -79.1663
-1.81594 -79.2402
-0.0209985 -79.0632
1.82339 -79.0774
4.01398 -79.1599
5.86086 -79.2794
8.12594 -79.253
9.8843 -79.1225
11.8293 -79.3269
13.8225 -78.9827
15.7302 -79.3245
17.7385 -79.2153
19.7893 -79.1145
21.6978 -79.1458
23.8731 -79.0833
25.8457 -79.2641
27.7182 -79.0794
29.7416 -79.2606
31.8469 -79.2641
33.8392 -79.3239
35.6794 -79.2512
37.5138 -79.2749
39.5522 -79.3335
41.6933 -79.1398
43.6628 -79.2538
45.5809 -78.9774
47.6679 -79.2891
49.3944 -79.1589
51.7147 -79.3039
53.5734 -79.1018
55.2797 -79.1544
57.3442 -79.1548
59.4104 -79.1881
61.4258 -79.3264
63.46 -79.1853
65.2858 -79.4819
67.2646 -79.0678
69.3638 -79.2634
71.3383 -79.1759
73.2825 -79.3099
75.1637 -79.2869
77.2776 -79.1394
79.1681 -79.1293
81.0758 -79.121
83.2097 -79.1089
85.0607 -79.2771
87.2756 -79.1828
89.2388 -79.1664
91.2219 -79.1797
93.0414 -79.4673
95.0151 -79.2043
97.0954 -79.1661
-98.9665 -77.1596
-96.9011 -77.2789
-94.9704 -77.3242
-93.2342 -77.1539
-91.2188 -77.2314
-89.0839 -77.3131
-87.0049 -77.1597
-85.1435 -77.2961
-83.1522 -77.2157
-81.223 -77.1124
-79.2893 -77.1274
-77.1396 -77.2492
-75.1829 -77.3528
-73.3537 -77.1875
-71.2959 -77.2286
-69.2131 -77.2993
-67.3221 -77.2202
-65.3446 -77.275
-63.4268 -77.4343
-61.3293 -77.2999
-59.2659 -77.2592
-57.2735 -77.2715
-55.4094 -77.2596
-53.5269 -77.3362
-51.5788 -77.1618
-49.5192 -77.2655
-47.5987 -77.1042
-45.631 -77.2044
-43.5585 -77.2639
-41.5425 -77.3851
-39.6651 -77.2647
-37.6845 -77.3578
-35.5793 -77.1101
-33.5334 -77.0412
-31.6055 -76.9975
-29.6693 -77.4534
-27.6876 -77.255
-25.7117 -77.2408
-23.6868 -77.0432
-21.6684 -77.1999
-19.8688 -77.207
-17.7803 -77.2642
-15.8953 -77.1941
-13.9212 -77.062
-12.0279 -77.2073
-9.98281 -77.4039
-7.74703 -77.0447
-6.05148 -77.299
-3.85216 -77.2989
-1.95506 -77.1123
0.00643359 -77.1332
1.93904 -77.2773
4.10793 -77.0288
5.84889 -77.2077
8.01632 -77.321
9.95344 -77.0508
11.9041 -77.2485
13.9967 -77.3093
15.8067 -77.2119
17.8724 -77.1505
19.6723 -77.3736
21.6536 -77.112
23.8346 -77.0944
25.8732 -77.3449
27.6455 -77.2539
29.8253 -77.1464
31.7835 -77.2946
33.8334 -77.2968
35.7412 -77.1051
37.7135 -77.155
39.5746 -77.3305
41.6016 -77.1964
43.7206 -77.2587
45.5089 -77.2504
47.4828 -77.1147
49.6779 -77.3039
51.4888 -77.2543
53.3219 -77.0368
55.4758 -77.1245
57.2666 -77.2036
59.2814 -77.239
61.3402 -77.1884
63.5034 -77.0248
65.3205 -77.1359
67.3248 -77.3622
69.3937 -76.9686
71.2752 -77.1706
73.3068 -77.0715
75.161 -77.2131
77.2831 -77.1413
79.3177 -77.2713
81.057 -77.2772
83.152 -77.2527
85.1915 -77.2468
87.0631 -76.9501
89.002 -77.193
91.0458 -77.273
92.9536 -77.3189
95.0694 -77.4099
97.0393 -77.1389
98.9146 -75.2426
-97.2354 -75.4497
-95.063 -75.3327
-92.9968 -75.2125
-91.1517 -75.284
-89.1481 -75.1742
-86.9207 -75.2924
-85.1019 -75.288
-83.2524 -74.9851
-81.0678 -75.0345
-79.1383 -75.2634
-77.1746 -75.3651
-75.2348 -75.1822
-73.152 -75.1057
-71.2661 -75.2675
-69.2606 -75.3779
-67.2522 -75.2225
-65.5024 -75.2585
-63.3402 -75.2917
-61.4602 -75.2398
-59.4584 -75.2511
-57.3584 -75.1798
-55.4959 -75.4563
-53.4775 -75.3177
-51.4389 -75.3105
-49.4871 -75.2127
-47.531 -75.1988
-45.6271 -75.3341
-43.4177 -75.2723
-41.5773 -75.3291
-39.4615 -75.2329
-37.5684 -75.2728
-35.6991 -75.1899
-33.8061 -75.3985
-31.5996 -75.0527
-29.6818 -75.2436
-27.7109 -75.2387
-25.8847 -75.3143
-23.7919 -75.2762
-21.7929 -75.192
-19.7244 -75.2684
-17.8861 -75.2792
-15.7966 -75.1902
-13.8128 -75.2271
-11.834 -75.2795
-9.84224 -75.1196
-8.10146 -75.3311
-5.9689 -75.4563
-3.95265 -75.2759
-1.99003 -75.417
0.0224462 -75.087
1.8982 -75.3675
4.07088 -75.3147
5.92936 -75.1905
7.9557 -75.1353
9.88548 -75.1639
11.9072 -75.3812
13.864 -75.0438
15.8903 -75.2266
17.9405 -75.2851
19.8069 -75.1589
21.6972 -75.0885
23.6881 -75.0824
25.8221 -75.1487
27.5723 -75.1614
29.6505 -75.3672
31.7144 -75.2254
33.664 -75.3248
35.5244 -75.3364
37.5675 -75.2196
39.6165 -75.3754
41.5145 -75.3761
43.6238 -75.2844
45.5381 -75.1243
47.3926 -75.1809
49.6375 -75.1626
51.4042 -75.2928
53.5312 -75.2162
55.4221 -75.3201
57.5084 -75.2611
59.4287 -75.1585
61.4607 -75.2905
63.3015 -75.352
65.3802 -75.2358
67.3617 -75.2049
69.1957 -75.1669
71.1797 -75.1856
73.1086 -75.3421
75.3857 -75.1745
77.1315 -75.4269
79.1551 -75.3024
81.1182 -75.3114
83.0886 -75.3368
85.1517 -75.1702
87.0813 -75.0106
89.0927 -75.2967
91.0189 -75.2636
93.2361 -75.1127
95.0103 -75.308
96.898 -75.4048
98.9669 -73.2639
-97.1309 -73.2948
-95.0983 -73.1815
-93.0325 -73.2364
-90.9866 -73.1348
-88.9331 -73.2297
-87.0613 -73.3555
-84.993 -73.1565
-83.1384 -73.2263
-81.0672 -73.3318
-79.3071 -73.2248
-77.2625 -73.2459
-75.1585 -73.2233
-73.3108 -73.2497
-71.4072 -73.3174
-69.3989 -73.2936
-67.4544 -73.3424
-65.3191 -73.4865
-63.4495 -73.22
-61.313 -73.2638
-59.3694 -73.2883
-57.3731 -73.3146
-55.5611 -73.4195
-53.4671 -73.1317
-51.3112 -73.2779
-49.5971 -73.1048
-47.5669 -73.177
-45.5827 -73.2693
-43.6956 -73.2306
-41.5653 -73.0997
-39.6134 -73.1909
-37.5943 -73.3342
-35.719 -73.1829
-33.6756 -73.3141
-31.6224 -73.2598
-29.6279 -73.3216
-27.5456 -73.359
-25.7556 -73.3474
-23.7416 -73.0748
-21.8556 -73.2356
-19.8785 -73.1083
-17.7814 -73.2004
-15.9104 -73.382
-13.9035 -73.0966
-11.8139 -73.2221
-9.94682 -73.284
-7.99394 -73.1932
-6.00829 -73.2975
-3.89223 -73.2844
-2.00511 -73.2314
-0.103099 -73.3176
1.92147 -73.2035
3.80691 -73.2092
5.94381 -73.3182
8.0043 -73.1135
9.89936 -73.0296
11.953 -73.2144
13.922 -73.3032
15.7656 -73.3337
17.798 -73.2427
19.9137 -73.2717
21.8829 -73.3529
23.8094 -73.3206
25.7192 -73.281
27.7142 -73.3448
29.5414 -73.3277
31.6632 -73.1965
33.5874 -73.1941
35.538 -73.2619
37.855 -73.2805
39.6408 -73.3027
41.5295 -73.3313
43.6391 -73.3485
45.5275 -73.2995
47.517 -73.416
49.4911 -73.3136
51.5286 -73.3066
53.4964 -73.0907
55.4845 -73.2912
57.3616 -73.3087
59.4949 -73.1969
61.261 -73.36
63.3136 -73.4011
65.252 -73.1541
67.2352 -73.0868
69.2828 -73.2899
71.2002 -73.3855
73.265 -73.1302
75.1686 -73.2866
77.194 -73.3148
79.2829 -73.2688
81.0784 -73.1316
83.0209 -73.3204
85.1068 -73.3206
87.0834 -73.2566
88.9924 -73.2757
90.9749 -73.2144
92.9944 -73.2191
95.0816 -73.1901
97.0963 -73.2463
98.9257 -71.2855
-97.1004 -71.2613
-95.1203 -71.2499
-93.1107 -71.28
-91.0338 -71.3754
-89.0353 -71.3753
-87.1185 -71.3901
-85.1901 -71.1742
-83.0688 -71.2398
-81.1202 -71.2453
-79.2642 -71.2426
-77.3744 -71.4101
-75.3941 -71.451
-73.4002 -71.2156
-71.1983 -71.2636
-69.4048 -71.2384
-67.2751 -71.1504
-65.2889 -71.3032
-63.3503 -71.3505
-61.5178 -71.1691
-59.5161 -71.3262
-57.4211 -71.278
-55.4797 -71.4326
-53.4271 -71.1806
-51.5172 -71.3318
-49.5205 -71.3693
-47.3738 -71.2696
-45.5524 -71.2787
-43.715 -71.5086
-41.5923 -71.2957
-39.5655 -71.2479
-37.6385 -71.1847
-35.6479 -71.3763
-33.6596 -71.2484
-31.5931 -71.1293
-29.6495 -71.3911
-27.5999 -71.1833
-25.7019 -71.3397
-23.798 -71.1724
-21.8128 -71.3616
-19.6967 -71.3481
-18.0126 -71.1718
-15.8874 -71.1573
-13.8552 -71.3771
-11.6908 -71.1966
-10.0466 -71.293
-7.89815 -71.4565
-5.80783 -71.213
-4.112 -71.3337
-1.87077 -71.4757
-0.060724 -71.2687
1.9248 -71.276
3.94442 -71.3129
5.96333 -71.2284
7.90319 -71.2912
9.97757 -71.3865
11.9806 -71.2616
14.1121 -71.2879
15.984 -71.5087
17.8203 -71.2615
19.7977 -71.1916
21.7703 -71.3976
23.6262 -71.1452
25.75 -71.339
27.7623 -71.3064
29.7126 -71.0958
31.5243 -71.3472
33.6191 -71.2426
35.7316 -71.2322
37.7157 -71.1113
39.704 -71.358
41.461 -71.2671
43.6307 -71.4762
45.4909 -71.3938
47.5268 -71.2083
49.5482 -71.3188
51.546 -71.2959
53.5029 -71.2457
55.495 -71.2813
57.5012 -71.2021
59.523 -71.3398
61.3562 -71.2782
63.5778 -71.3895
65.2283 -71.3906
67.3718 -71.4295
69.1746 -71.4581
71.3874 -71.242
73.282 -71.2256
75.3314 -71.334
77.3966 -71.2661
79.2601 -71.3854
81.2923 -71.3336
83.0948 -71.3504
85.0881 -70.9676
87.0575 -71.41
89.2285 -71.3457
91.0288 -71.3145
93.0387 -71.3242
94.9362 -71.4438
97.2691 -71.3627
-98.9241 -69.3015
-97.0214 -69.2441
-94.992 -69.2446
-93.0261 -69.4043
-91.059 -69.3597
-89.1943 -69.3174
-86.9823 -69.3104
-85.1919 -69.2341
-82.9224 -69.0834
-81.1899 -69.3801
-79.2587 -69.273
-77.2352 -69.2749
-75.1173 -69.3376
-73.299 -69.281
-71.2122 -69.3168
-69.2849 -69.2056
-67.4558 -69.2494
-65.3596 -69.1596
-63.375 -69.3165
-61.3892 -69.3714
-59.5757 -69.2354
-57.3112 -69.1549
-55.6129 -69.2156
-53.3883 -69.2451
-51.2743 -69.3193
-49.635 -69.4244
-47.5577 -69.1724
-45.5364 -69.239
-43.7193 -69.2728
-41.4939 -69.2827
-39.5326 -69.3549
-37.4093 -69.3404
-35.6453 -69.2354
-33.5553 -69.2418
-31.6786 -69.3241
-29.7209 -69.305
-27.6821 -69.3745
-25.6577 -69.2867
-23.7353 -69.2728
-21.6168 -69.198
-19.9538 -69.4125
-17.8788 -69.2451
-15.8907 -69.405
-13.9284 -69.1935
-11.8595 -69.395
-9.83698 -69.3846
-8.14211 -69.3751
-5.93617 -69.2003
-3.94431 -69.392
-2.13301 -69.3522
-0.122512 -69.3414
2.05274 -69.2791
4.06365 -69.4198
5.99212 -69.294
8.04425 -69.3051
9.94889 -69.3317
11.9887 -69.1176
14.0019 -69.3583
15.6798 -69.2481
17.7818 -69.3237
19.8019 -69.4337
21.7428 -69.1581
23.7873 -69.4547
25.8431 -69.196
27.5689 -69.3226
29.5348 -69.4717
31.7136 -69.2112
33.7227 -69.2774
35.7028 -69.2116
37.6958 -69.2268
39.75 -69.2079
41.5275 -69.3704
43.5516 -69.366
45.505 -69.0867
47.3863 -69.4001
49.5081 -69.3229
51.4338 -69.3873
53.5166 -69.3478
55.7042 -69.3556
57.2337 -69.4207
59.4092 -69.3635
61.3116 -69.2197
63.3511 -69.2881
65.272 -69.3718
67.2845 -69.4019
69.4478 -69.1448
71.3779 -69.2291
73.2197 -69.3109
75.26 -69.3858
77.2132 -69.394
79.2044 -69.1702
81.2272 -69.2264
83.3294 -69.3817
85.0031 -69.1124
86.9722 -69.191
89.0026 -69.3791
91.0429 -69.4086
93.158 -69.3197
94.9485 -69.2828
96.9831 -69.4168
-98.8906 -67.3281
-97.099 -67.3959
-95.0082 -67.4808
-93.1399 -67.3914
-91.0362 -67.2553
-89.0093 -67.0948
-87.091 -67.3321
-85.1996 -67.4166
-83.1596 -67.1526
-81.1742 -67.3777
-79.2001 -67.4181
-77.1944 -67.3947
-75.2322 -67.3794
-73.2447 -67.3769
-71.1337 -67.1591
-69.3104 -67.1866
-67.4902 -67.2491
-65.3184 -67.4649
-63.4077 -67.2805
-61.484 -67.4511
-59.3902 -67.2158
-57.3516 -67.3693
-55.4741 -67.2599
-53.5139 -67.2762
-51.5365 -67.3324
-49.7152 -67.4057
-47.6537 -67.25
-45.7017 -67.2993
-43.5697 -67.3052
-41.5747 -67.389
-39.5658 -67.4889
-37.8481 -67.1394
-35.6974 -67.2803
-33.7562 -67.2212
-31.7863 -67.224
-29.9156 -67.2014
-27.8023 -67.3727
-25.8736 -67.3778
-23.811 -67.3267
-21.8351 -67.1416
-19.8548 -67.4895
-17.9332 -67.1266
-15.9065 -67.2548
-13.826 -67.3532
-11.762 -67.1617
-9.94852 -67.2782
-7.92589 -67.3747
-6.07165 -67.2584
-3.99196 -67.3759
-1.89447 -67.1875
-0.0395701 -67.4991
1.97649 -67.1905
3.87255 -67.3181
6.12793 -67.3959
7.83937 -67.3542
9.92556 -67.2941
11.7037 -67.3262
13.8503 -67.4134
15.9256 -67.5531
17.8002 -67.3554
19.9245 -67.4014
21.758 -67.3839
23.6448 -67.2633
25.7827 -67.4308
27.7712 -67.3154
29.542 -67.4106
31.7943 -67.4056
33.5564 -67.4015
35.4641 -67.3652
37.744 -67.2882
39.5608 -67.1783
41.4116 -67.334
43.4465 -67.332
45.671 -67.3015
47.5564 -67.304
49.569 -67.4145
51.4722 -67.3946
53.4134 -67.2113
55.2844 -67.4755
57.455 -67.3126
59.2869 -67.3359
61.284 -67.3424
63.235 -67.2382
65.2604 -67.3203
67.4033 -67.4253
69.3911 -67.1112
71.2829 -67.5011
73.2769 -67.3501
75.0479 -67.4747
77.2129 -67.3114
79.2232 -67.5334
81.1413 -67.5146
82.9513 -67.3948
85.1554 -67.2982
87.0825 -67.2454
88.9432 -67.3228
90.9825 -67.4151
93.1774 -67.3228
95.0308 -67.3859
97.1591 -67.2814
98.8219 -65.3264
-97.0517 -65.3825
-95.0992 -65.3918
-93.132 -65.2639
-91.1105 -65.0872
-89.1734 -65.4526
-87.2429 -65.2311
-85.0688 -65.4052
-83.0737 -65.4037
-81.1485 -65.3105
-79.1146 -65.3757
-77.1752 -65.4315
-75.2119 -65.3496
-73.3474 -65.3555
-71.2277 -65.335
-69.3104 -65.3134
-67.5264 -65.5098
-65.2518 -65.4285
-63.3749 -65.2067
-61.3735 -65.3249
-59.2905 -65.3692