ITEM: TIMESTEP
600
ITEM: NUMBER OF ATOMS
10000
ITEM: BOX BOUNDS pp pp pp
-5.7205700000000000e+01 5.7205700000000000e+01
-5.7205700000000000e+01 5.7205700000000000e+01
-1.1441100000000000e+01 1.1441100000000000e+01
ITEM: ATOMS x y
-56.9995 56.9774
-55.8242 57.1839
-54.5553 56.9448
-53.4418 -57.1545
-52.3875 -57.0206
-51.302 57.1478
-50.1443 -57.1791
-48.7924 57.0422
-47.7675 -57.0616
-46.8052 57.065
-45.611 -57.1846
-44.5908 57.1836
-43.2214 57.0365
-41.9006 57.1924
-40.8753 57.1291
-39.8487 57.0656
-38.7451 -57.1158
-37.5794 -57.1315
-36.5346 -57.0228
-35.1366 -57.0848
-33.9957 -57.0791
-32.979 57.1826
-31.9326 -57.1018
-30.8297 -57.1756
-29.55 -57.1328
-28.4343 57.1146
-27.421 57.0367
-26.3084 -57.1027
-24.7865 -57.1028
-23.6998 57.161
-22.6987 57.2147
-21.6291 57.0916
-20.1321 56.9205
-19.1488 -57.0741
-17.8164 57.0228
-16.8804 -57.0004
-15.8565 57.0558
-14.8288 -57.0809
-13.6276 -57.0671
-12.3463 -57.0578
-11.1943 57.1645
-10.2002 -57.1627
-9.05866 -56.9523
-7.88492 -57.2248
-6.86084 -57.233
-5.31538 -57.1394
-4.32244 57.123
-3.26017 57.0115
-2.05623 -57.0909
-1.01333 -57.1853
0.0444618 57.1878
1.4224 57.1966
2.43294 57.1781
3.42692 -57.0716
4.59468 -57.0624
6.10558 -57.0518
7.0349 56.947
8.10488 -57.1143
9.14097 -57.0304
10.7188 -57.1716
11.7722 57.2532
12.8173 57.0076
13.9337 -57.1534
15.0312 57.1024
16.1688 56.9604
17.3729 57.1684
18.3974 -57.0026
19.4297 -57.0652
20.5401 57.0563
21.6356 -57.056
23.1103 -57.0892
24.4788 57.0861
25.5706 -56.892
26.4942 57.1174
27.7071 57.1871
28.827 -57.0356
29.9165 -57.1292
30.9098 57.0652
31.9826 -57.1634
33.3497 -57.1342
34.5034 57.2292
35.7253 57.102
36.7547 57.1786
37.8559 -56.9696
38.9052 57.1333
40.202 57.1254
41.2994 56.9797
42.5525 -57.1329
43.5763 -57.122
44.6397 -56.9334
45.742 56.8658
47.1169 56.9591
48.271 57.1026
49.5614 57.0866
50.5847 -57.0731
51.5451 57.0369
52.6906 57.2328
54.1513 -57.1758
55.1625 -56.9989
56.362 57.22
-57.1842 -55.955
-55.9547 -56.0313
-54.6803 -56.0159
-53.3907 -56.1114
-52.2941 -55.874
-51.2418 -56.2247
-49.9862 -56.1815
-48.953 -56.3194
-48.021 -55.9505
-46.8362 -55.8972
-45.5715 -56.1696
-44.1783 -55.9913
-43.0725 -56.2012
-42.1466 -55.8211
-40.854 -56.1974
-39.6389 -56.1123
-38.4193 -56.0401
-37.3778 -55.9418
-36.22 -55.9954
-35.1592 -56.0819
-34.1433 -55.9427
-33.0453 -56.2139
-31.955 -55.9334
-30.8146 -55.9168
-29.6069 -55.7849
-28.624 -56.262
-27.5429 -55.9783
-26.435 -56.0882
-24.9028 -55.7482
-23.832 -56.1164
-22.6965 -56.13
-21.6271 -56.2896
-20.4281 -56.0369
-19.4292 -56.0618
-17.9913 -55.794
-16.9349 -55.9453
-15.8229 -55.9955
-14.6101 -56.0421
-13.4719 -55.9583
-12.4464 -55.9484
-10.9934 -56.0584
-9.98051 -55.9385
-8.96968 -55.9194
-7.84149 -56.1877
-6.66812 -56.1252
-5.52509 -56.0561
-4.46138 -55.9635
-3.4293 -56.0742
-2.17488 -56.0576
-0.790324 -56.1553
0.232208 -56.0348
1.31049 -55.92
2.53585 -56.0228
3.60524 -55.7853
4.79971 -56.0639
5.79948 -56.0702
6.81108 -55.9364
8.29811 -55.9969
9.29673 -55.8896
10.5578 -55.9942
11.6061 -56.0992
12.975 -56.1586
14.0718 -56.167
15.1957 -55.8646
16.2689 -56.1803
17.2825 -56.2029
18.45 -55.8627
19.7645 -55.9576
20.888 -55.7876
22.1487 -56.1215
23.3083 -56.0745
24.3359 -56.0067
25.3328 -55.8858
26.3143 -56.2027
27.5386 -56.1706
28.9109 -56.0189
30.0857 -55.9735
31.1345 -56.0346
32.234 -56.0434
33.2284 -56.1145
34.4746 -56.1832
35.5376 -56.1851
36.9432 -56.1109
38.195 -55.9874
39.1856 -56.1792
40.2333 -56.1326
41.5883 -56.2335
42.6281 -56.0402
43.66 -55.9875
45.1312 -55.9886
46.1984 -56.2361
47.2201 -56.1212
48.2153 -55.8075
49.3517 -56.2616
50.5752 -56.0435
51.7676 -56.0474
52.8117 -56.1085
53.8526 -56.0708
55.0692 -55.9728
56.2221 -56.1595
-57.1457 -54.7861
-55.8919 -55.0162
-54.4332 -54.9262
-53.2582 -55.0731
-52.2759 -54.8559
-51.3049 -55.1202
-50.0552 -54.9372
-49.0219 -55.1809
-47.9578 -54.9373
-46.7781 -54.8111
-45.4796 -54.8925
-44.2516 -54.863
-43.0145 -54.9221
-41.9404 -54.8318
-40.9111 -55.1387
-39.9558 -54.6119
-38.8656 -54.8559
-37.4046 -54.8998
-36.326 -54.9589
-35.0445 -54.9997
-34.0251 -54.868
-32.8952 -55.1546
-31.6707 -54.821
-30.6321 -54.693
-29.6136 -54.7744
-28.3362 -55.0292
-27.2831 -54.991
-26.2399 -55.0549
-25.0963 -54.758
-23.8469 -55.0402
-22.8335 -55.0923
-21.5318 -55.1091
-20.2904 -55.0204
-19.2312 -55.056
-18.1767 -54.6834
-16.8562 -54.9083
-15.6914 -54.8711
-14.6514 -54.6775
-13.4993 -54.8097
-12.3697 -54.9344
-11.3051 -54.8988
-10.2757 -54.7372
-8.92465 -54.8369
-7.8784 -54.9191
-6.8918 -55.067
-5.69106 -54.6599
-4.34705 -54.8193
-3.10639 -55.0489
-2.10962 -55.0513
-1.09669 -55.0738
0.277902 -54.8587
1.46585 -54.8612
2.63395 -55.0115
3.69923 -54.785
4.86151 -55.038
5.87561 -54.983
7.03192 -54.7895
8.2905 -54.9388
9.3544 -54.8624
10.7496 -54.8613
11.8416 -54.8213
12.9841 -55.0624
14.2765 -55.102
15.2668 -54.8431
16.3969 -54.9327
17.5421 -55.1133
18.6393 -54.8802
19.7808 -54.7946
20.8749 -54.6386
21.8332 -55.0788
23.1937 -55.0222
24.3113 -54.8077
25.4885 -54.832
26.5774 -55.0343
27.6226 -54.9815
29.0055 -54.9311
30.134 -54.8004
31.2879 -54.9255
32.3291 -54.9225
33.3411 -54.9326
34.3898 -55.0971
35.4634 -55.1435
37.004 -55.0232
38.1209 -54.9747
39.1186 -55.0267
40.2103 -55.0964
41.3366 -55.0812
42.4345 -54.9133
43.831 -54.9527
44.9771 -54.8603
46.2014 -55.1095
47.3194 -55.0702
48.303 -54.6814
49.4154 -54.9494
50.4228 -54.9793
51.4425 -55.0434
52.5192 -54.9384
53.8886 -54.9204
55.2182 -54.9383
56.1577 -54.4991
-57.0168 -53.5187
-55.9527 -53.8933
-54.9568 -53.6788
-53.5856 -53.8992
-52.5393 -53.8688
-51.2961 -53.8712
-50.2893 -53.902
-48.9885 -53.624
-47.9368 -53.734
-46.7712 -53.7028
-45.7743 -53.9061
-44.3605 -53.735
-43.222 -53.8211
-41.8689 -53.8305
-40.8945 -54.119
-40.0218 -53.591
-38.6831 -53.7371
-37.6557 -53.8595
-36.1882 -53.7757
-35.2203 -54.0168
-34.2429 -53.7667
-32.9531 -53.7953
-31.6757 -53.8201
-30.543 -53.6915
-29.474 -53.6201
-28.4627 -53.9929
-27.1576 -53.9137
-25.9564 -53.8431
-24.916 -53.7248
-23.8319 -53.9201
-22.7884 -53.8396
-21.6024 -53.9601
-20.1729 -53.8015
-19.1599 -53.9205
-17.8731 -53.6186
-16.7903 -53.9061
-15.7576 -53.6424
-14.762 -53.6485
-13.3336 -53.8053
-12.3269 -53.8869
-11.2668 -53.8848
-10.2869 -53.5175
-9.25645 -53.7595
-8.25184 -53.6403
-6.56111 -53.9699
-5.48905 -53.5661
-4.46188 -53.7229
-3.38606 -53.8932
-1.87196 -54.0299
-0.862402 -53.9531
0.125179 -53.7433
1.28136 -53.6885
2.58708 -53.9121
3.77713 -53.7936
4.85466 -53.5905
5.83563 -53.9523
7.21204 -53.7956
8.22968 -53.6251
9.39079 -53.8431
10.4305 -53.9012
11.6525 -53.8416
12.9925 -53.786
14.1254 -53.6821
15.1419 -53.8266
16.3347 -53.9158
17.2819 -53.5438
18.3238 -53.6341
19.4126 -53.8552
21.0358 -53.5933
22.1037 -53.8382
23.1099 -53.9039
24.3057 -53.6822
25.427 -53.7543
26.6501 -53.9366
27.7753 -53.7378
28.8952 -53.8959
30.0494 -53.7805
31.2939 -53.621
32.2687 -53.8936
33.287 -53.6123
34.5922 -54.0389
35.6679 -54.1246
36.7355 -53.9049
38.2075 -53.8512
39.2964 -53.9928
40.3455 -53.7623
41.4219 -54.007
42.5089 -53.6635
43.672 -53.8838
44.8062 -53.8625
46.0316 -53.7969
47.0695 -53.8584
48.2216 -53.6872
49.2508 -53.5451
50.3887 -53.8954
51.6864 -53.7188
52.8432 -53.8879
53.9009 -53.8201
54.9022 -53.8979
56.3582 -53.4858
-56.8603 -52.3997
-55.7247 -52.7613
-54.6893 -52.6205
-53.5411 -52.7826
-52.4181 -52.8632
-51.4219 -52.7232
-50.0797 -52.7754
-49.0056 -52.5613
-47.886 -52.5767
-46.73 -52.5162
-45.6075 -52.6958
-44.5285 -52.6792
-43.434 -52.5467
-42.3472 -52.8695
-41.2131 -52.9317
-39.7351 -52.515
-38.7382 -52.7043
-37.6261 -52.79
-36.2897 -52.7407
-35.286 -52.6866
-34.1276 -52.7214
-33.0861 -52.6507
-32.0111 -52.6261
-30.7733 -52.55
-29.6438 -52.6179
-28.6846 -52.3259
-27.5979 -52.7963
-26.2524 -52.8288
-24.7712 -52.6964
-23.7638 -52.7889
-22.7669 -52.7399
-21.5648 -52.6755
-20.5107 -52.3746
-19.3078 -52.4816
-18.1379 -52.6572
-16.8723 -52.779
-15.8135 -52.6457
-14.4902 -52.633
-13.3573 -52.788
-12.1722 -52.8632
-11.0354 -52.8208
-10.0769 -52.4972
-8.86776 -52.7764
-7.77225 -52.6774
-6.7115 -52.4436
-5.60755 -52.5494
-4.48102 -52.5635
-3.0946 -52.6524
-2.02314 -52.9607
-0.865147 -52.526
0.246273 -52.6396
1.31021 -52.5781
2.54184 -52.5428
3.66225 -52.7832
4.75049 -52.5829
5.81463 -52.886
7.01317 -52.7632
8.23503 -52.5652
9.34844 -52.4432
10.459 -52.5924
11.5805 -52.7888
12.7101 -52.6971
14.0214 -52.5661
15.142 -52.5595
16.2213 -52.5226
17.3151 -52.4982
18.2831 -52.1843
19.2877 -52.571
20.6461 -52.4536
21.7703 -52.7863
23.1316 -52.8493
24.214 -52.6297
25.2563 -52.4369
26.3962 -52.3475
27.4501 -52.3928
28.6811 -52.7574
29.79 -52.5591
31.2692 -52.5816
32.2716 -52.6919
33.3975 -52.5897
34.4003 -52.6687
35.5948 -52.8467
36.8065 -52.8435
37.8273 -52.8481
39.1477 -52.6357
40.3528 -52.5042
41.4619 -52.6854
42.5242 -52.6342
43.5741 -52.5493
44.626 -52.8284
45.8265 -52.4494
46.8497 -52.6674
48.4172 -52.5175
49.441 -52.4216
50.4429 -52.3668
51.6222 -52.6766
52.806 -52.8895
53.9928 -52.6541
55.0601 -52.3474
56.0594 -52.5292
-56.9414 -51.3755
-55.8895 -51.6928
-54.8196 -51.5047
-53.7829 -51.5892
-52.6044 -51.6865
-51.3785 -51.7083
-50.0056 -51.4622
-48.8257 -51.53
-47.7482 -51.4367
-46.4977 -51.4358
-45.4168 -51.7061
-44.3778 -51.5711
-43.36 -51.4363
-42.3277 -51.7248
-41.1768 -51.7401
-39.8914 -51.4112
-38.7803 -51.6064
-37.6047 -51.7012
-36.2404 -51.4579
-35.2098 -51.6175
-34.1924 -51.6532
-33.1465 -51.6271
-32.1278 -51.449
-30.7828 -51.3978
-29.5952 -51.5033
-28.586 -51.2741
-27.3879 -51.2791
-26.1594 -51.4119
-25.0599 -51.2015
-24.0986 -51.6828
-22.7455 -51.1388
-21.5706 -51.6563
-20.4071 -51.3505
-19.2536 -51.3361
-18.062 -51.633
-17.0689 -51.7856
-15.7732 -51.5523
-14.6 -51.5346
-13.5559 -51.6279
-12.4745 -51.4766
-11.4654 -51.8824
-10.4295 -51.3826
-9.13081 -51.4084
-8.12026 -51.6481
-6.71975 -51.3918
-5.51179 -51.4354
-4.47606 -51.5155
-3.20307 -51.5455
-2.15718 -51.3557
-1.15861 -51.381
0.156919 -51.3341
1.22178 -51.5172
2.68052 -51.5067
3.69211 -51.4422
4.69959 -51.4788
5.78352 -51.6158
6.94097 -51.589
8.36264 -51.4937
9.5054 -51.3363
10.5374 -51.4882
11.5372 -51.7213
13.1075 -51.464
14.2137 -51.4836
15.2253 -51.5405
16.4631 -51.4381
17.5204 -51.3811
18.7896 -51.3202
19.8294 -51.3362
20.8778 -51.1823
21.8204 -51.5956
22.8245 -51.4136
23.8481 -51.3567
24.8736 -51.4398
26.1962 -51.3435
27.5905 -51.3818
28.7594 -51.7135
29.8652 -51.3887
30.8908 -51.2522
31.8665 -51.4773
33.3688 -51.4913
34.5295 -51.4301
35.654 -51.8391
37.0317 -51.4176
38.1108 -51.8295
39.1968 -51.6326
40.1917 -51.4747
41.3135 -51.5971
42.763 -51.6562
43.8929 -51.3912
44.9285 -51.5371
45.9585 -51.3399
46.9349 -51.5512
47.9746 -51.5635
49.1756 -51.4475
50.3444 -51.365
51.5142 -51.5276
52.9724 -51.4523
54.0768 -51.5889
55.0754 -51.3473
56.2692 -51.506
-56.9639 -50.3328
-55.7253 -50.3714
-54.5971 -50.3427
-53.5213 -50.3691
-52.5217 -50.4059
-51.2426 -50.3768
-49.8734 -50.3481
-48.8171 -50.4092
-47.7085 -50.2903
-46.6056 -50.3452
-45.4653 -50.5255
-44.478 -50.3676
-43.2074 -50.4278
-42.1183 -50.3755
-41.0842 -50.345
-40.0835 -50.4253
-38.5617 -50.5975
-37.5216 -50.5706
-36.3655 -50.3204
-35.3761 -50.5312
-34.1643 -50.3341
-33.1318 -50.1876
-32.1056 -50.4114
-30.4416 -50.4409
-29.3249 -50.4207
-28.3107 -50.2669
-27.1183 -50.0769
-26.0584 -50.2431
-24.9234 -50.1192
-23.823 -50.2103
-22.683 -50.053
-21.8476 -50.6598
-20.3512 -50.3562
-19.2548 -50.3324
-18.2152 -50.5314
-16.9067 -50.5373
-15.768 -50.4152
-14.6103 -50.4849
-13.643 -50.1306
-12.5543 -50.1235
-11.5579 -50.7096
-10.1134 -50.3372
-8.69668 -50.4403
-7.71626 -50.078
-6.41534 -50.3889
-5.24585 -50.3699
-4.20077 -50.4153
-3.08621 -50.385
-2.03811 -50.2178
-0.662125 -50.4961
0.353884 -50.3103
1.368 -50.4807
2.44642 -50.4066
3.70126 -50.3091
5.03384 -50.2326
6.10447 -50.3868
7.09034 -50.5867
8.26757 -50.4553
9.47201 -50.3166
10.4719 -50.3683
11.5904 -50.6259
12.6022 -50.5344
13.814 -50.522
15.0299 -50.3738
16.0761 -50.3833
17.3029 -50.1644
18.3802 -50.3955
19.4938 -50.3615
20.7207 -50.1033
21.7205 -50.1402
23.0815 -50.3552
24.1276 -50.3128
25.24 -50.1372
26.5638 -50.3223
27.7002 -50.2535
28.7644 -50.4112
29.9718 -50.283
31.2438 -50.2782
32.2876 -50.2105
33.5056 -50.3542
34.5434 -50.1675
35.6763 -50.3621
36.7937 -50.3588
37.9542 -50.8159
39.0462 -50.5616
40.3024 -50.4487
41.4275 -50.4557
42.4537 -50.2615
43.4783 -50.4114
44.686 -50.5121
45.8739 -50.0222
46.7828 -50.4509
48.2256 -50.2823
49.2899 -50.1669
50.4466 -50.2839
51.6656 -50.285
53.1288 -50.2455
54.1095 -50.4951
55.2675 -50.3175
56.3248 -50.3519
-57.151 -49.2472
-55.7666 -49.0118
-54.7191 -49.3209
-53.6895 -49.2662
-52.5677 -49.2316
-51.2183 -49.1032
-50.0687 -49.173
-49.0317 -49.3941
-47.8806 -49.1436
-46.801 -49.335
-45.6067 -49.3257
-44.2821 -49.3706
-43.1385 -49.3855
-42.137 -49.3484
-40.7218 -49.4146
-39.7035 -49.2763
-38.5478 -49.0165
-37.4743 -49.2523
-36.2129 -49.3271
-35.1883 -49.0214
-34.1649 -49.0615
-33.0799 -49.0895
-31.7896 -49.0331
-30.5979 -49.3168
-29.569 -49.3477
-28.554 -49.2896
-27.3182 -49.0715
-26.0484 -49.1722
-25.0516 -49.0339
-23.9588 -49.2047
-22.8564 -49.033
-21.417 -49.1218
-20.3318 -49.2561
-19.2884 -49.2409
-18.0879 -49.4416
-17.0578 -49.3659
-15.9786 -49.1543
-14.438 -49.2101
-13.4491 -49.0968
-12.3327 -49.1234
-11.3229 -49.0551
-10.0775 -49.2586
-8.83512 -49.3771
-7.82979 -49.0548
-6.82356 -49.4529
-5.82587 -49.2382
-4.44532 -49.1882
-3.28616 -49.1962
-2.06679 -49.1312
-0.923536 -49.3585
0.303727 -49.2741
1.2975 -49.0339
2.35566 -49.3211
3.5621 -49.2966
4.78595 -49.1891
5.83045 -49.1583
6.91281 -49.0488
8.22337 -49.2527
9.51333 -49.2172
10.736 -49.0447
11.7919 -49.2358
12.9215 -49.2268
13.9847 -49.3232
14.969 -49.0056
16.0696 -49.3137
17.1167 -48.9977
18.5755 -49.3292
19.6462 -49.1181
20.6433 -49.0688
21.6755 -48.9455
23.2294 -49.2553
24.3876 -49.3467
25.571 -49.0315
26.5765 -49.0957
27.7725 -49.2316
28.7971 -49.2813
29.8941 -49.1954
31.371 -49.1409
32.386 -49.2111
33.4901 -49.2903
34.4961 -49.1532
35.6681 -49.3157
36.7562 -49.3017
37.7607 -49.3633
38.767 -49.2629
39.9765 -49.0506
41.3892 -49.4084
42.4498 -49.1638
43.4528 -49.2089
44.8865 -49.3546
45.7604 -48.8352
47.051 -49.3643
48.19 -49.2085
49.4186 -49.0471
50.6961 -49.0618
51.8013 -49.1764
52.7942 -48.9693
53.8033 -49.2469
54.8327 -49.0825
56.2039 -49.3154
-57.1888 -48.1369
-55.9268 -48.0072
-54.9077 -48.0373
-53.8818 -47.9674
-52.4369 -48.1356
-51.3528 -47.9604
-50.2052 -47.9968
-49.2512 -48.3997
-47.945 -47.8976
-46.8987 -47.8793
-45.7704 -48.1925
-44.5437 -47.9893
-43.1298 -47.9254
-42.1418 -48.1993
-41.0472 -48.164
-39.7701 -47.8718
-38.7048 -47.9322
-37.7076 -48.2285
-36.5076 -48.3489
-35.2102 -48.0023
-33.993 -47.9567
-32.8103 -48.0225
-31.7582 -48.011
-30.6976 -47.9131
-29.5429 -47.854
-28.4977 -48.2322
-27.4647 -48.0505
-26.2224 -47.9095
-25.2016 -48.0432
-23.8743 -48.0794
-22.6961 -47.9952
-21.4979 -48.0149
-20.1704 -48.041
-19.024 -47.9247
-17.9954 -47.9145
-16.9359 -48.3261
-15.7063 -47.7948
-14.6566 -48.069
-13.6529 -48.0077
-12.4164 -48.0856
-11.4177 -48.0604
-10.3374 -48.1057
-8.91999 -48.3731
-7.75195 -48.0496
-6.68768 -48.0337
-5.36747 -48.1237
-4.32453 -48.1062
-3.30892 -47.9672
-2.13116 -48.1214
-1.01928 -48.2566
-0.0223756 -48.3203
1.35465 -47.8915
2.59594 -48.2865
3.58433 -48.0255
4.89596 -48.134
5.94828 -48.0121
7.13291 -48.0712
8.21751 -48.0929
9.23347 -48.209
10.2805 -47.9857
11.5856 -48.1982
13.0139 -48.0642
14.1131 -48.2038
15.1803 -47.9438
16.2626 -48.0056
17.4151 -47.9733
18.5049 -48.3114
19.9228 -48.1586
20.9306 -47.8827
21.9724 -47.9893
22.9893 -48.2305
24.4176 -47.8233
25.4124 -47.9784
26.5031 -48.0563
27.5675 -48.1581
28.8069 -48.085
30.1312 -47.9929
31.121 -47.8225
32.1982 -48.1192
33.1587 -47.6713
34.5662 -48.0331
35.6999 -48.2446
37.0161 -48.2127
38.096 -48.3333
39.191 -48.1008
40.3773 -48.0574
41.3741 -48.2947
42.4339 -48.0968
43.4834 -47.9017
44.7289 -47.8397
45.8914 -47.8364
46.9451 -47.7786
48.3378 -48.1219
49.3342 -47.9937
50.4119 -48.0556
51.462 -48.2237
52.9905 -47.8838
54.0042 -48.2641
55.0074 -47.7897
55.8905 -48.2657
-56.9272 -46.8111
-55.8434 -46.9661
-54.813 -46.8421
-53.7567 -46.5201
-52.4692 -46.9889
-51.3187 -46.8787
-50.2182 -46.863
-48.8271 -46.9711
-47.7834 -46.7525
-46.6161 -46.8579
-45.4289 -47.2115
-44.5204 -46.7579
-43.2748 -46.7996
-42.2585 -47.1782
-40.7166 -47.1006
-39.655 -46.7616
-38.6594 -46.898
-37.6439 -47.2059
-36.413 -46.9435
-35.1185 -46.9612
-34.1177 -46.8
-33.0611 -46.835
-32.0684 -47.0311
-30.8303 -46.7641
-29.5929 -46.7671
-28.5761 -47.194
-27.1437 -47.0672
-26.0159 -46.9207
-24.9504 -46.742
-23.7038 -47.0387
-22.702 -46.9508
-21.6491 -47.0022
-20.2031 -46.9264
-19.2026 -46.874
-18.2068 -46.7983
-17.0737 -47.1993
-15.9545 -46.7925
-14.6283 -46.9394
-13.5299 -46.8763
-12.3011 -46.8773
-11.2992 -47.0153
-9.93704 -46.9643
-8.85728 -47.215
-7.68006 -46.9203
-6.65874 -46.8019
-5.52874 -47.0235
-4.45654 -47.0936
-2.98459 -46.8763
-1.76587 -46.9616
-0.72906 -46.8843
0.310773 -46.7016
1.39806 -46.6232
2.42743 -46.6813
3.82014 -46.8201
4.8069 -47.0655
5.92988 -46.9083
7.21917 -46.9937
8.38109 -47.0019
9.55812 -47.0667
10.6239 -47.0306
11.8296 -46.9033
12.8624 -47.0477
14.0063 -47.0762
15.2616 -46.849
16.4529 -46.991
17.4727 -46.8631
18.5073 -47.0956
19.6093 -47.1191
20.7784 -46.8764
22.0256 -46.8797
23.0199 -46.995
24.1886 -46.6695
25.2385 -46.9778
26.334 -46.9283
27.8317 -46.879
28.8813 -46.9503
29.8834 -46.7638
30.8903 -46.8192
32.1208 -47.0994
33.4585 -46.6619
34.7397 -46.7636
35.7619 -46.7938
36.9475 -47.1258
37.9268 -46.8636
38.9227 -46.7265
39.9732 -47.0665
41.238 -46.8664
42.6944 -47.12
43.7754 -46.8397
45.1672 -46.6888
46.1733 -46.827
47.2208 -46.7821
48.3176 -47.1201
49.4542 -46.8317
50.6145 -46.8839
51.6836 -47.1232
52.8072 -46.8771
53.9491 -46.9294
55.3308 -46.7184
56.2104 -47.307
-57.0842 -45.6323
-55.7737 -45.9014
-54.6815 -45.7112
-53.3907 -45.5038
-52.3193 -45.92
-51.1807 -45.8699
-50.1331 -45.8188
-48.6672 -45.774
-47.6571 -45.744
-46.6147 -45.6915
-45.4442 -46.0584
-44.4199 -45.6867
-43.3607 -45.7811
-41.8675 -45.5131
-40.9002 -45.8487
-39.9512 -45.5224
-38.8318 -45.5786
-37.4851 -45.9506
-36.2677 -45.8071
-35.2456 -45.7029
-34.2417 -45.5545
-32.8504 -45.6556
-31.8423 -45.5835
-30.7896 -45.6747
-29.7892 -45.7897
-28.6521 -45.9251
-27.023 -45.9481
-25.9567 -45.8831
-24.8736 -45.6566
-23.964 -46.0627
-22.8173 -45.955
-21.4628 -45.7659
-20.2767 -45.8898
-19.0657 -45.8782
-17.8452 -45.8335
-16.79 -45.6046
-15.7684 -45.6881
-14.6602 -45.8711
-13.5007 -45.7852
-12.294 -45.8742
-11.2161 -45.8986
-10.1269 -45.8309
-9.01928 -45.9757
-8.02141 -45.5027
-6.84354 -45.7404
-5.65849 -45.7576
-4.21016 -45.9474
-3.12551 -45.8482
-1.95541 -45.9503
-0.795961 -45.8292
0.20185 -45.6936
1.58403 -45.5552
2.6851 -45.7132
3.69339 -45.6248
4.75331 -45.9879
6.04184 -45.8859
7.10588 -45.92
8.26129 -45.9784
9.36599 -46.0002
10.3754 -45.9338
11.4851 -45.8895
12.6493 -45.4705
13.8559 -45.7033
15.1496 -45.6454
16.3312 -45.8272
17.3887 -45.7321
18.3955 -45.8361
19.6058 -46.0848
20.8212 -45.7277
21.875 -45.8607
23.031 -45.977
24.4207 -45.5274
25.3311 -45.9733
26.6197 -45.9607
27.6621 -45.8599
28.7208 -45.7575
29.8712 -45.7276
31.0435 -45.7802
32.2928 -45.6031
33.3818 -45.6598
34.576 -45.5603
35.683 -45.6425
36.7238 -45.9587
37.7782 -45.5702
39.3342 -45.7189
40.332 -45.8101
41.5139 -45.7304
42.6798 -45.6831
43.6752 -45.7818
44.6818 -45.7646
46.0443 -45.8308
47.1299 -45.7797
48.1298 -45.6675
49.5503 -45.7733
50.5106 -45.492
51.5726 -45.8017
52.6618 -45.7476
53.6631 -45.7511
54.6705 -45.8188
56.1247 -45.7644
-56.8978 -44.5934
-55.8417 -44.6187
-54.8304 -44.6788
-53.6154 -44.5199
-52.5652 -44.6716
-51.435 -44.732
-50.3738 -44.6727
-49.0275 -44.7903
-47.7947 -44.4243
-46.5862 -44.5595
-45.4584 -44.9681
-44.4238 -44.6615
-43.2789 -44.628
-42.2774 -44.5117
-41.2191 -44.6663
-39.8431 -44.4873
-38.6304 -44.5495
-37.4417 -44.7145
-36.28 -44.8074
-35.2835 -44.6045
-34.2589 -44.4012
-32.8971 -44.5746
-31.7649 -44.5153
-30.6877 -44.6093
-29.6318 -44.7216
-28.3384 -44.7908
-27.2794 -44.7592
-26.2011 -44.862
-25.0868 -44.6435
-23.7544 -44.8707
-22.4715 -44.9447
-21.5044 -44.6735
-20.469 -44.7668
-19.4715 -44.585
-18.0361 -44.7426
-16.8555 -44.5573
-15.8507 -44.6909
-14.7537 -44.4998
-13.4073 -44.5841
-12.2488 -44.7706
-11.2393 -44.8494
-10.0009 -44.5576
-8.88425 -44.5914
-7.85409 -44.3941
-6.85109 -44.6943
-5.72722 -44.7309
-4.43673 -44.7341
-3.34441 -44.7729
-2.16721 -44.6694
-0.98863 -44.7376
0.331232 -44.486
1.39466 -44.5548
2.39548 -44.6833
3.63269 -44.505
4.71927 -44.4684
5.71382 -44.7566
6.95662 -44.7695
8.00595 -44.9014
9.34473 -44.9006
10.4462 -44.8066
11.5109 -44.8057
12.778 -44.4365
13.9953 -44.6034
15.0188 -44.4792
16.3088 -44.7715
17.3212 -44.67
18.6563 -44.5897
19.9364 -44.5178
20.9974 -44.7046
21.9969 -44.8469
23.0638 -44.8246
24.0423 -44.4672
25.2686 -44.8284
26.7401 -44.7563
27.7572 -44.4794
28.9102 -44.7134
29.9275 -44.4498
31.1369 -44.6872
32.263 -44.4293
33.3372 -44.3045
34.5599 -44.557
35.8384 -44.4351
36.9495 -44.7701
37.961 -44.5612
39.0176 -44.735
40.2234 -44.5517
41.3381 -44.4748
42.7082 -44.5576
43.7819 -44.5702
44.832 -44.6334
45.9703 -44.6697
47.0474 -44.6907
48.0602 -44.6582
49.447 -44.639
50.4702 -44.4877
51.7781 -44.6282
52.8596 -44.5293
54.1074 -44.8057
55.134 -44.8181
56.3616 -44.6224
-56.8742 -43.5876
-55.7641 -43.5914
-54.7444 -43.6737
-53.6171 -43.2646
-52.538 -43.6544
-51.2727 -43.6848
-50.2973 -43.3661
-49.2348 -43.2879
-47.9553 -43.2999
-46.6522 -43.4382
-45.6847 -43.1518
-44.609 -43.1781
-43.1964 -43.5569
-41.9798 -43.4648
-40.9325 -43.432
-39.6121 -43.4615
-38.5605 -43.3552
-37.5645 -43.4684
-36.4126 -43.7203
-35.1375 -43.5336
-34.1481 -43.3279
-32.8923 -43.4449
-31.7606 -43.5136
-30.5709 -43.5994
-29.5526 -43.5736
-28.2979 -43.427
-27.2401 -43.6293
-26.2003 -43.4425
-25.2017 -43.517
-23.9158 -43.8569
-22.6183 -43.8727
-21.6345 -43.6092
-20.4791 -43.6214
-19.1446 -43.5788
-17.9905 -43.48
-16.7414 -43.3567
-15.7062 -43.6013
-14.5564 -43.3852
-13.4012 -43.3848
-12.3792 -43.4588
-11.2264 -43.5362
-10.234 -43.2755
-9.20032 -43.3453
-8.11356 -43.3091
-6.93294 -43.6351
-5.62445 -43.5283
-4.61732 -43.6275
-3.03411 -43.2444
-2.08428 -43.5939
-0.891997 -43.6855
0.407007 -43.441
1.43465 -43.5496
2.53006 -43.6524
3.63122 -43.3721
4.87013 -43.2177
5.90639 -43.4842
6.96567 -43.5633
7.98398 -43.6068
9.38366 -43.6136
10.3856 -43.3819
11.551 -43.3692
12.6501 -43.3483
13.6595 -43.4999
15.2539 -43.3782
16.2331 -43.7529
17.1956 -43.347
18.5977 -43.5227
19.7013 -43.187
20.7674 -43.645
21.8552 -43.3067
23.2443 -43.4027
24.2954 -43.397
25.4123 -43.4769
26.6489 -43.5903
27.7179 -43.4252
28.9689 -43.3798
30.1099 -43.3925
31.2054 -43.6219
32.1816 -43.4192
33.1758 -43.2318
34.2854 -43.4929
35.5712 -43.4557
36.8275 -43.6886
38.019 -43.504
39.1317 -43.1607
40.0856 -43.4949
41.4591 -43.4212
42.4696 -43.321
43.4968 -43.5237
44.5668 -43.5043
45.9063 -43.6386
47.0382 -43.491
48.1166 -43.3977
49.6039 -43.4816
50.6732 -43.3789
51.7364 -43.3429
52.7481 -43.491
53.787 -43.4174
54.756 -43.8332
56.2588 -43.6048
-57.1873 -42.4104
-56.1908 -42.2526
-54.8652 -42.5871
-53.4106 -42.2625
-52.3724 -42.3224
-51.3839 -42.5914
-50.4042 -42.2744
-48.8148 -42.3129
-47.7944 -42.2557
-46.6817 -42.202
-45.4006 -42.1573
-44.2549 -42.2128
-43.2309 -42.2539
-42.2458 -42.4237
-41.0265 -42.2006
-39.8429 -42.4295
-38.8191 -42.3877
-37.7908 -42.3271
-36.7404 -42.5897
-35.5003 -42.4431
-34.1521 -42.2707
-32.9585 -42.4254
-31.9095 -42.3207
-30.7463 -42.3424
-29.4891 -42.4214
-28.1559 -42.3561
-27.023 -42.3684
-26.0341 -42.1818
-24.9594 -42.4912
-23.728 -42.6069
-22.5215 -42.5259
-21.5263 -42.5135
-20.501 -42.3297
-19.3307 -42.507
-18.2571 -42.3409
-17.2559 -42.2607
-15.6465 -42.2376
-14.6529 -42.3677
-13.5732 -42.3675
-12.416 -42.2074
-11.2486 -42.3241
-9.92181 -42.1642
-8.90929 -42.3555
-7.86735 -42.3377
-6.76295 -42.2538
-5.63988 -42.5186
-4.43939 -42.1806
-3.39652 -42.2813
-2.18715 -42.4323
-1.1381 -42.1715
-0.0830815 -42.3328
1.52346 -42.2598
2.52168 -42.4666
3.86626 -42.3253
4.85293 -42.1027
5.87775 -42.2894
7.0936 -42.134
8.32766 -42.3514
9.2907 -42.0848
10.2533 -42.3591
11.8629 -42.3654
12.8731 -42.3334
13.999 -42.3825
14.9962 -42.1509
15.992 -42.5694
17.0018 -42.1522
18.6146 -42.4452
19.7014 -42.1193
20.6471 -42.6056
21.7815 -42.2921
22.87 -42.2812
24.1099 -42.3896
25.1363 -42.4199
26.6392 -42.2789
27.646 -42.397
28.742 -42.2584
29.8808 -42.3942
30.9595 -42.2759
31.9938 -42.0041
33.4787 -42.1946
34.6062 -42.5369
35.7464 -42.3015
36.7235 -42.5331
37.8493 -42.4865
39.0052 -42.1376
40.1143 -42.1437
41.1963 -42.4078
42.4999 -42.1659
43.5226 -42.3069
44.776 -42.2656
45.997 -42.528
47.0372 -42.458
48.066 -42.1082
49.0861 -42.3712
50.3593 -42.135
51.74 -42.2059
52.7549 -42.3098
53.8858 -42.4111
55.1583 -42.3436
56.2389 -42.2573
-56.9668 -41.2289
-55.8521 -41.0525
-54.7914 -40.9398
-53.5213 -41.23
-52.2872 -41.2453
-51.1743 -41.3116
-49.8906 -41.3649
-48.8516 -41.2695
-47.8396 -41.1946
-46.5276 -41.0574
-45.3916 -41.136
-44.3752 -41.128
-43.3279 -40.9536
-42.3133 -41.3786
-40.9965 -41.1561
-39.9574 -41.1687
-38.9518 -41.3376
-37.8286 -41.2247
-36.215 -41.508
-35.1646 -41.1756
-33.9879 -41.2407
-32.9816 -41.2876
-31.6538 -41.1879
-30.601 -41.2248
-29.499 -41.306
-28.4987 -41.1585
-27.3326 -41.368
-26.0668 -41.0337
-25.0704 -41.35
-23.8405 -41.2415
-22.855 -41.0449
-21.7035 -41.2179
-20.3425 -41.2626
-19.2722 -41.4
-18.0916 -41.1783
-16.7067 -40.967
-15.5909 -41.2266
-14.5549 -41.1956
-13.4734 -41.2049
-12.2292 -41.1041
-11.2298 -41.0941
-10.1883 -41.1793
-8.95768 -41.2906
-7.78424 -41.2605
-6.67494 -41.1322
-5.25653 -41.0555
-4.23592 -41.1702
-3.19491 -41.1438
-2.05529 -41.0121
-0.972632 -41.135
0.0593977 -40.9692
1.1985 -41.3027
2.34507 -41.4098
3.35256 -40.8654
4.91754 -41.0887
6.04105 -41.2785
7.03671 -41.0529
8.04287 -40.9708
9.09127 -40.9352
10.4111 -41.3265
11.6305 -41.0352
13.0157 -41.327
14.1062 -41.2223
15.0899 -40.9897
16.3439 -41.3818
17.3662 -41.1371
18.4812 -41.137
19.4854 -41.062
20.6633 -41.2199
21.7935 -41.1065
23.3512 -41.1611
24.4056 -41.3003
25.4501 -41.3718
26.7589 -41.1846
27.758 -41.2857
28.9669 -41.153
29.961 -40.9585
31.3004 -41.2797
32.3968 -41.0864
33.41 -41.0724
34.5794 -41.1056
35.5945 -41.2022
36.8203 -41.2403
37.8755 -41.4386
38.8547 -41.1426
39.8693 -41.1323
41.2773 -41.2682
42.5685 -41.1286
43.8347 -41.0526
44.8184 -41.2594
45.8278 -41.483
47.3419 -41.3297
48.3537 -41.0902
49.4341 -41.4145
50.65 -41.0442
51.7016 -41.0546
52.7348 -41.3092
53.7224 -41.1482
54.7911 -41.3026
56.332 -41.2512
-57.2029 -40.1747
-55.8802 -40.0469
-54.8753 -39.883
-53.4973 -40.1194
-52.2649 -40.0046
-51.2532 -40.1525
-50.2259 -40.2947
-48.9756 -40.2003
-47.7902 -40.0367
-46.6674 -39.8622
-45.6078 -40.1367
-44.503 -39.9749
-43.4189 -39.8309
-42.5214 -40.3716
-41.4507 -39.9786
-40.1333 -40.0036
-38.9074 -40.0599
-37.4888 -39.8873
-36.3958 -40.1256
-35.2421 -40.0009
-34.1459 -40.1277
-33.0132 -40.2729
-31.7829 -39.9336
-30.7414 -40.1787
-29.5488 -39.8953
-28.4578 -40.1383
-27.1821 -40.3782
-26.2475 -40.0062
-25.2339 -39.8606
-24.1731 -40.1462
-22.6027 -40.0389
-21.3724 -40.2478
-20.397 -40.0193
-19.2454 -40.3976
-18.1113 -40.0385
-16.9628 -39.9727
-15.8528 -40.0697
-14.7877 -40.174
-13.6206 -40.095
-12.4234 -40.0648
-11.2747 -39.921
-10.2438 -39.9688
-9.06514 -40.0718
-7.69219 -39.8926
-6.66894 -40.0546
-5.48504 -40.0667
-4.3667 -40.0259
-3.34008 -40.0848
-1.97367 -39.965
-0.969945 -40.082
0.0936874 -39.8682
1.19031 -40.1375
2.397 -40.3972
3.57903 -39.8227
4.69676 -40.1129
5.83077 -40.0794
7.08584 -39.9693
8.15006 -39.9241
9.56798 -39.9574
10.6924 -40.2371
11.6921 -39.9287
12.6802 -39.7283
13.6839 -40.0862
14.8937 -39.9601
16.0326 -40.3662
17.117 -40.1058
18.5121 -40.1079
19.6599 -39.978
20.9285 -40.1392
22.038 -39.9355
23.0987 -40.1643
24.138 -40.2294
25.0907 -39.8975
26.2468 -40.0436
27.5203 -40.2812
28.5589 -40.0559
29.7667 -39.9442
31.3074 -39.9958
32.439 -40.0692
33.4381 -39.9003
34.5442 -39.9425
35.7835 -40.1386
36.7837 -39.9472
38.0421 -40.1049
39.1916 -40.1884
40.3575 -40.1446
41.3588 -39.925
42.5365 -39.9649
43.878 -40.0471
44.9654 -40.1202
46.2686 -40.0211
47.289 -40.1352
48.3267 -40.0135
49.3523 -39.9532
50.4537 -39.8992
51.8221 -39.999
52.9758 -40.0627
53.983 -40.0679
55.1075 -40.003
56.1456 -40.2429
-57.1313 -39.103
-55.9182 -38.7923
-54.7882 -38.6019
-53.7419 -39.0489
-52.3667 -38.8067
-51.2226 -39.0313
-50.1762 -39.1205
-48.9475 -38.9416
-47.7224 -38.8919
-46.7062 -38.7627
-45.6943 -38.9001
-44.3041 -38.9698
-43.2313 -38.8425
-42.0817 -39.1945
-40.9952 -39.0687
-39.8403 -38.7976
-38.6763 -38.6203
-37.5375 -38.8756
-36.363 -38.8958
-35.2994 -38.8335
-34.3021 -38.7396
-33.0681 -38.5904
-31.8932 -38.8749
-30.91 -38.6788
-29.7408 -38.7903
-28.2021 -38.9674
-27.1907 -39.0326
-25.9599 -38.8797
-24.8116 -38.9262
-23.7294 -38.9619
-22.7286 -38.9728
-21.5196 -39.1479
-20.3285 -38.7584
-19.127 -38.8553
-18.1207 -38.7797
-16.7399 -38.8841
-15.739 -38.8871
-14.7534 -39.1516
-13.4876 -38.9651
-12.3819 -38.9196
-11.3687 -38.8056
-10.2235 -38.9681
-8.93581 -38.7279
-7.70314 -38.8788
-6.69518 -39.0572
-5.31801 -39.0549
-4.31045 -38.8981
-3.32059 -39.0213
-2.32099 -38.8246
-0.911223 -39.0311
0.156966 -38.8475
1.28848 -39.1042
2.37853 -39.1881
3.76156 -38.7561
4.90695 -39.1086
5.95354 -38.828
7.04517 -38.9493
8.47443 -38.9813
9.4793 -38.9338
10.4771 -38.8154
11.702 -38.9302
12.6794 -38.6917
13.7674 -38.9952
14.8432 -38.9436
16.3571 -39.0279
17.3769 -38.8411
18.4702 -39.0395
19.5838 -38.9082
20.6825 -39.0471
22.1969 -38.721
23.2514 -39.0768
24.2792 -38.8708
25.4078 -38.8028
26.4485 -38.8184
27.5569 -39.0179
28.5891 -38.7572
30.0866 -38.999
31.2121 -38.9373
32.3972 -38.8428
33.4049 -38.7119
34.4353 -38.859
35.7037 -38.9446
36.8742 -38.8571
37.8577 -39.0183
38.8965 -39.1632
40.2027 -39.0658
41.4749 -38.9302
42.5662 -38.8375
43.7974 -38.9206
45.0293 -39.0112
46.0528 -38.9526
47.0685 -38.774
48.2407 -38.9
49.4091 -38.7018
50.5571 -38.7968
51.5534 -38.8112
52.5855 -38.9529
53.6404 -39.0407
55.1306 -38.841
56.2413 -39.2115
-56.8913 -38.0469
-55.8584 -37.5116
-54.7584 -37.5816
-53.7059 -37.8405
-52.5254 -37.6441
-51.3194 -37.9724
-49.9359 -37.9447
-48.984 -37.5514
-48.0032 -37.8998
-46.7268 -37.7336
-45.5454 -37.8895
-44.2443 -37.9055
-43.2487 -37.7305
-42.103 -37.7765
-41.0135 -37.9259
-39.8693 -37.7704
-38.7794 -37.6095
-37.6287 -37.8478
-36.5097 -37.7337
-35.4637 -37.7036
-34.2049 -37.7022
-32.8825 -37.5747