ITEM: TIMESTEP
63000
ITEM: NUMBER OF ATOMS
10000
ITEM: BOX BOUNDS pp pp pp
-5.7205700000000000e+01 5.7205700000000000e+01
-5.7205700000000000e+01 5.7205700000000000e+01
-1.1441100000000000e+01 1.1441100000000000e+01
ITEM: ATOMS x y
-48.5875 47.7319
-45.2992 41.9206
-53.5271 -55.6372
56.6768 -53.4887
-49.9729 50.4725
-45.195 -56.2284
-41.4435 -48.5518
-44.3004 -55.3304
-35.8534 -51.1344
-34.3596 -46.9151
-29.2636 -47.5788
-37.0937 -50.879
-32.7202 -49.5651
-33.0219 56.9638
-36.0915 -49.5249
-24.9583 -47.5003
-21.9823 -44.9306
-27.8846 55.1912
-33.3074 -52.2733
-31.4595 -56.125
-26.4599 53.4264
-25.0147 -53.2732
-31.7057 53.6923
-25.5626 55.3934
-20.6599 53.024
-19.4149 -56.7391
-18.3751 -55.0563
-25.7231 54.1996
-21.5297 -46.8261
-17.1205 -52.9531
-7.33131 53.1161
-6.21845 51.6534
-15.964 56.8397
-2.47273 -53.6536
-6.63099 -47.9995
-7.33305 -52.7108
-4.39719 -51.8887
-2.05302 -48.9157
-3.3565 -51.6759
12.8587 -48.3522
2.75903 -56.3763
-3.78817 -50.6122
-2.63334 -47.3827
-1.83595 -43.6034
10.5902 -39.2146
3.56169 -52.8826
6.90073 -55.5157
6.88276 -50.0561
10.1967 50.8542
9.08074 -52.9971
2.50289 -52.0313
11.7688 -48.4292
-6.31521 -39.3317
13.1879 -55.4747
7.75598 -51.0537
18.6043 55.9958
19.7926 55.9493
13.0919 -47.33
21.5604 51.4611
13.9 51.5933
21.3641 -53.4002
25.6829 -54.213
6.57141 -42.8959
11.2769 -50.3848
22.9806 -55.3468
30.6603 56.2437
32.0171 45.988
26.0965 51.8336
28.8207 -53.6278
33.1522 -54.8477
25.1953 -56.3929
32.6615 -53.1376
32.5454 57.0984
35.4009 -54.7385
29.8579 -53.6519
27.0628 -48.5201
38.4747 56.763
40.6646 55.2412
47.9922 56.3195
35.3262 -55.753
34.7775 -52.3961
42.511 54.955
50.117 55.3725
47.5364 51.8623
52.4913 -56.6638
53.86 50.749
46.6827 -51.7101
53.8848 45.1746
51.2187 45.3893
45.3692 43.3766
51.5709 46.3212
47.159 45.7353
50.4733 41.8486
-54.5597 55.4367
-50.4443 46.3926
-51.9512 50.6022
-50.2945 56.0437
-48.3692 48.7067
-49.3968 -56.2833
-44.3965 49.5494
-56.2356 51.1807
-54.3352 -56.6191
-49.8685 52.5713
50.9856 49.547
-54.92 -53.4749
-51.501 -55.5825
-44.7328 57.1257
-40.7683 -51.7712
-45.1339 -52.269
-47.4249 -51.8258
-40.7535 -42.5112
-35.3906 -52.2151
-23.8598 -50.3802
-32.4827 -45.5415
-23.6846 -47.6718
-20.1714 -41.6734
-28.9613 -46.3947
-20.313 -51.9139
-24.0307 -51.4636
-16.0292 -49.3294
-27.1818 -52.1176
-29.8521 -50.632
-23.219 -54.0531
-20.6961 -50.96
-26.8064 54.8404
-23.3386 49.9553
-23.4693 56.2181
-21.3721 50.4552
-14.5992 -52.3644
-10.0182 -50.9104
-10.0592 -49.69
-24.4571 56.0365
-6.53618 -55.8862
-8.47405 -57.0547
-7.41799 -53.7122
-8.74619 51.0536
4.53618 -52.4795
4.06796 -53.7581
12.5301 -53.9113
5.27914 -54.3031
5.25501 -51.7234
0.166614 -42.5034
-0.802141 -46.6632
-0.0407592 -53.2711
8.63359 -42.479
9.83224 -51.6861
-1.36241 -41.1998
3.67823 -44.0166
2.57458 -45.9347
7.73796 57.013
14.5215 -53.0356
10.3048 -55.3154
13.8803 -56.8208
8.56984 52.3302
9.33696 51.5084
16.8861 49.4109
22.579 54.3862
17.4928 48.5436
21.2291 -48.951
21.8862 -48.0059
17.1252 -55.8353
19.9718 -51.8118
15.9569 55.4916
25.8873 -50.2904
13.6966 49.0489
21.5377 53.7422
22.9478 -56.5249
30.7414 -49.0996
35.4771 -53.6979
42.7985 53.8712
36.3848 -55.576
40.1788 -52.248
33.7715 -52.6631
43.9902 -55.6599
48.9734 55.9948
34.4726 -43.4672
43.7514 -56.6916
39.3308 52.5037
38.2527 -51.5115
49.2032 52.8099
44.3401 -53.1344
48.1437 53.9871
50.257 56.904
45.3674 -52.2584
42.3581 51.723
47.3635 57.1115
49.9848 48.6842
53.699 -56.3768
44.1823 56.605
42.7505 -51.3551
-54.8265 46.5379
49.9951 49.8039
56.6784 46.3072
53.7893 53.2912
56.2143 51.2408
-54.1251 51.6839
-52.7569 46.4996
-52.4583 48.5756
-52.5495 -55.3184
-51.9629 47.6371
-54.7809 49.0351
-51.5417 54.1534
-51.6893 52.896
-49.5464 54.9187
-48.7076 -54.357
-55.7403 -52.9051
-56.5155 49.3609
-42.7073 -44.8514
-45.5851 -53.3117
-34.1363 -48.815
-47.4086 -50.7635
-33.7644 -50.1854
-34.9838 -55.91
-31.8611 -44.7399
-25.1481 -41.7352
-29.2616 -49.8266
-21.3442 -51.8286
-21.4414 -45.7721
-21.3358 -48.7625
-30.039 -48.5935
-21.4108 -53.9498
-27.4416 53.6823
-25.7962 52.3819
-24.7859 -54.9637
-20.6105 -56.1002
-29.2197 51.6697
-27.329 56.9941
-21.12 -52.9233
-18.2952 -49.9077
-8.90585 -52.7866
-18.0204 -56.1769
-11.1768 -53.4033
-12.7674 -47.1426
-10.7365 -51.6831
-12.1863 -48.1313
-5.49932 -56.1461
-11.2171 -50.6714
-4.21875 -49.588
-4.929 -55.2344
2.21758 -53.1916
-13.3074 -48.5414
-4.60436 -43.4817
-3.22927 56.0511
2.35763 -49.9452
4.86092 -35.5506
7.8285 -46.168
3.20957 -49.2439
7.30662 -49.1385
4.73962 -50.6217
4.05478 -42.1036
3.20182 -41.4432
10.4664 49.4202
5.32798 -48.2927
4.46467 -43.0626
13.2921 55.7952
19.8707 -50.7051
15.9806 53.4153
16.6512 51.7976
14.0434 54.8488
27.0329 -55.8544
15.1785 56.9011
15.4193 -52.5139
27.8252 -54.0897
24.7143 -52.2184
24.004 -54.4192
26.7594 55.3029
26.5565 -53.7183
35.5786 -56.9983
24.094 -53.1317
29.5366 -52.6938
33.1355 -48.9716
26.6201 -46.8251
46.2108 53.8795
37.7265 -53.1937
29.4996 -48.5875
21.808 -55.0551
40.4995 56.2652
32.4267 -45.7713
34.2454 -44.4833
50.2341 53.1102
44.958 -55.3797
35.1633 55.4482
47.079 48.9315
44.3739 -51.689
51.9655 50.4741
54.7934 -56.3793
50.511 54.2809
54.6517 52.6392
44.5783 55.4002
-56.6423 -53.8396
53.0607 54.4319
51.9853 54.3843
55.855 50.1832
-53.7391 53.5178
-54.7013 52.5688
54.3417 49.6954
-52.8007 50.0337
57.1375 48.3835
-48.8597 52.2278
53.1629 52.4597
-50.9307 50.0267
-41.6155 -54.9975
-56.4306 -55.7881
-46.4382 -56.1311
-47.4303 -49.6103
-48.0162 -48.6861
-53.2261 -56.944
-49.827 -54.1056
-50.8283 -54.1311
-35.5713 -47.2448
-36.1341 -55.6899
-41.5701 -44.9531
-38.6901 -52.2435
-32.9833 -44.2989
-22.9297 -50.9696
-31.5318 -57.1136
-30.1588 -44.3723
-27.0494 -49.849
-18.4295 -54.059
-30.2809 -56.1755
-20.2284 -43.4299
-21.8774 51.4342
-29.4638 -51.6903
-31.4525 -47.5115
-23.5068 54.1776
-16.8559 -48.6603
-24.744 53.8718
-8.7478 -49.9846
-9.43733 -56.7185
-13.3632 -45.5393
-11.9661 57.1681
-1.28753 -53.8056
-9.34268 55.6181
-6.28112 -53.2083
-2.40865 -50.941
-5.50931 -52.2925
6.19757 -51.4012
-7.91537 -47.9149
2.20507 -50.9404
-0.905199 -51.1127
-3.11493 -45.3331
-1.64036 -47.2766
-6.32164 -44.8887
-2.93457 -49.7629
8.09554 -38.8852
5.1221 -41.8092
16.5004 -35.8067
7.99016 -36.5894
6.08829 -40.0464
14.7345 -38.0174
11.9283 -47.166
0.959772 -43.3589
9.64185 56.7355
5.81132 -50.3614
3.74567 -55.8737
7.6812 51.6104
9.64224 54.2921
23.06 49.448
7.02051 -45.0399
8.10702 -48.0816
20.9073 -54.5175
15.7201 -51.3398
14.7576 -54.8051
28.191 54.3623
25.4887 -51.3924
27.1381 -52.0706
29.0653 54.834
29.7724 -49.769
27.6832 -49.4056
31.5354 -55.1499
24.3505 -50.9818
30.687 -46.9941
38.5722 -55.1705
33.6725 -49.8882
41.9255 -55.2742
40.9514 -55.5754
43.2375 -52.6103
40.2987 -53.8531
34.7225 56.8149
43.2816 -53.6929
40.2428 -56.4273
49.6481 50.8596
45.586 -53.2414
42.794 -57.0861
52.9295 51.2736
49.3442 53.8171
47.9583 -56.3291
45.1599 -50.1762
49.9975 -56.3615
52.1198 -55.6678
49.4614 -54.1824
49.865 -53.1709
47.7288 55.0259
55.4029 47.4738
55.0695 45.2155
-56.5668 56.2205
-55.9078 48.4803
-55.6027 53.1189
53.0091 49.8483
-52.5944 -53.4892
-50.9141 -56.4712
-51.5997 -51.5992
54.7262 54.1905
-53.5167 -52.6586
-49.5444 -47.1072
-42.4213 -54.2002
-45.9966 -50.1229
-37.3119 -49.6918
-40.2882 55.1426
-39.2352 -50.1937
-35.042 -37.6565
-44.0867 -50.0555
-46.5306 -48.8873
-27.5912 -43.5589
-33.5424 -45.3092
-43.4471 -54.6503
-23.1092 -41.5648
-17.555 -41.9072
-20.2748 57.1159
-16.7011 -46.4671
-16.1271 -53.5656
-12.2446 -52.5648
-20.9701 -47.6539
-25.7718 -49.6329
-25.9302 -48.1373
-23.0118 -57.0633
-18.3162 -51.0515
-13.0012 54.5521
-20.1202 -52.8984
-0.581537 -52.3874
-11.1469 -45.6074
-4.47603 -56.2672
-11.8383 -49.3541
-13.5603 -50.6499
1.02209 -53.8647
-14.4271 -48.05
-10.3882 -46.3991
-8.57907 -51.1702
-5.69455 -45.717
-5.75379 -38.1262
-5.77279 -40.3622
-7.02992 -44.0073
-3.52878 -38.6084
-6.14109 -47.0616
1.97612 -43.5355
3.02437 -44.881
-2.1923 -41.9025
1.53788 -45.9083
-0.730211 -44.4172
5.99858 -45.0269
0.957464 -37.667
-0.295782 -41.4352
5.04723 -47.2706
11.9769 -44.2603
11.3632 -55.2338
19.8697 -53.5401
6.04177 -46.9027
12.3069 -54.9238
16.1513 -55.3224
13.061 57.0244
13.9333 -43.3294
25.8783 -47.5167
26.832 -54.7138
19.6201 -55.0662
26.6665 -49.5909
22.9959 -46.3319
22.0177 -56.0266
18.0203 -56.4717
30.639 -52.6189
33.607 -48.0847
43.0802 -54.9334
25.1986 -53.318
39.5356 -55.7181
25.9556 -52.5015
36.3933 -54.2849
38.9338 -43.1486
40.0985 -54.9082
46.6254 54.9283
41.5193 55.8246
46.145 -56.6729
45.5229 -51.2326
46.5311 50.0192
49.8455 47.5608
43.7085 54.5554
42.2978 -54.2641
49.1169 57.1313
54.252 -45.0273
48.5391 -40.6096
51.3024 53.1649
54.5455 -50.2
54.0536 -48.907
47.5511 -55.2174
55.559 57.045
46.5891 52.4782
56.0194 -54.9527
-57.0035 52.0431
55.6106 52.2576
-51.9569 49.4723
-53.8547 -46.675
-54.6858 -55.6721
56.8743 56.8013
-49.9252 53.9029
-54.2529 -54.7722
-37.3119 -48.4773
-43.5812 -52.1829
-43.7482 56.7475
-35.1942 -48.8418
-46.7108 -47.9009
-47.6658 -43.7525
-33.2596 -43.3292
-39.0794 -48.5507
-44.9165 -49.2861
-27.8459 -45.674
-39.8722 -42.9463
-35.0106 56.7349
-33.3206 -53.3192
-27.0854 -47.9476
-30.4677 -47.1549
-24.835 -56.1854
-22.7732 -43.6244
-22.3468 -51.7845
-17.111 -47.3947
-21.607 -56.2641
-23.8009 -55.1771
-18.0026 -46.4463
-21.692 52.4121
-25.7078 -55.7128
-22.8862 -48.3006
-20.0621 -49.0427
-6.24702 57.1502
-11.8725 -54.2627
-10.4663 -56.85
-8.89941 -45.1941
-3.32592 -54.56
-14.3863 -51.3054
-0.0794272 -50.3407
-13.1491 -49.6915
-1.81969 -44.6449
-1.92632 -50.0153
-9.51226 -47.3483
2.266 -48.9463
0.203329 -46.2937
-2.85326 -44.3047
5.71375 -38.8199
9.6186 -49.0607
7.89329 -53.0855
3.14594 -50.6018
7.12329 -38.0323
6.94122 -40.8199
-3.38694 -43.4366
16.8363 -46.6696
9.52147 -41.5783
14.9122 54.1358
6.05238 -54.9893
10.8346 -49.2912
3.21831 -48.195
17.2048 -54.7801
16.232 50.2785
13.985 -46.177
19.5859 52.9793
16.391 -54.1742
13.7792 -54.5935
18.4358 -54.5181
22.1023 -52.6881
33.1964 -50.8994
22.2781 -51.6667
27.4425 -53.1089
22.7078 -50.4754
28.9087 -47.2655
31.8006 -52.2702
31.8854 -49.1255
38.2667 -46.1518
28.3275 -54.9679
25.3606 55.4846
23.4915 -49.8624
35.298 52.1493
40.8524 -53.0192
36.2477 -50.6097
36.7526 -48.2672
45.4929 -48.0888
52.3873 -50.7247
45.2645 -54.3504
50.9803 -52.7001
45.4901 56.0424
37.1793 -51.1437
54.9389 -55.2264
53.1701 56.8359
49.0178 -56.0774
51.8653 -53.6278
52.3394 -52.618
49.0865 -52.3363
50.43 -50.8639
52.941 -54.0762
42.0674 -56.3728
49.1928 54.8919
55.5679 53.3737
-53.819 56.4727
-55.4185 55.9912
-52.7182 -52.035
-52.2138 -56.4995
57.1102 55.0653
-56.1535 55.2729
-48.7523 -46.3178
-31.9654 -46.3841
-39.4985 -51.4218
-40.3429 -50.8647
-48.4415 -50.9198
-31.1141 -48.5152
-33.6426 -47.7767
-46.3978 -45.9928
-40.3991 -48.5708
-26.3144 -41.433
-32.2609 -43.4751
-34.3426 -43.2213
-28.0694 -47.7367
-32.6448 -47.25
-20.855 -38.7382
-15.2285 -38.8681
-18.9137 -48.6929
-14.8695 -50.381
-19.213 -52.2306
-9.98518 -53.7009
-26.9788 -44.6818
-18.0072 -57.1666
-22.6506 -55.9277
-18.4685 54.5765
-19.1649 51.0029
-24.3627 -57.0914
-17.2104 -55.3648
-12.0043 -44.1472
-7.77612 -50.3169
-16.6712 -51.9
-0.0550416 -55.3848
-12.3323 -50.2761
-14.2024 -49.2353
-1.81217 -51.8452
-9.02374 -48.9869
-6.60971 53.8427
-1.62845 -38.5198
-7.66216 -51.5807
-4.87203 -50.977
1.7301 -35.3647
-0.240665 -45.3247
3.97956 -49.9572
-4.28935 -39.3259
4.1483 -36.4267
3.11619 -36.4674
0.748497 -38.6401
3.63844 -45.7326
4.36944 -37.7608
2.98678 -43.0013
7.58872 -41.7584
1.30939 -42.4036
2.3151 -42.2253
8.85651 48.0644
15.6082 51.9815
10.9585 -43.7217
16.7729 -51.7323
9.37718 -46.2673
20.6826 -55.4978
22.1947 57.1939
14.692 -49.4306
24.0625 -56.8223
16.1109 -44.3767
17.1632 -53.505
19.017 -51.3981
23.6922 -52.0238
23.1163 -53.5076
20.9321 56.5051
30.7024 -54.4879
25.9224 -43.1697
21.2929 -44.0145
35.115 -46.8792
41.2745 -54.4377
28.568 -45.4094
36.3446 -49.5263
36.7293 -53.2142
46.3895 -50.7478
35.242 -51.2472
37.8761 -54.2889
44.8484 -45.0107
41.3733 -48.2232
46.5802 -54.6841
47.8748 -52.7813
48.4704 -50.5993
48.0808 -54.1095
45.1806 -46.8658
48.5321 -49.1137
44.2796 -54.2158
-56.1975 53.9493
56.5324 -48.2401
48.2213 -46.2809
53.4533 -53.0459
52.7515 -51.7059
-57.1025 43.0695
51.9643 49.2683
51.8224 -54.6313
52.3148 55.4302
-52.1561 55.1
-50.2731 -55.7093
-51.8202 -54.4523
56.1312 56.1037
-49.0185 -48.2387
-39.6903 -44.0132
-48.2624 -47.4802
-34.603 -45.9094
-28.795 -53.6613
-42.2016 -43.8392
-38.0573 -42.7161
-40.2958 -35.8652
-27.5031 -46.6261
-36.8454 -45.9121
-22.7402 -47.0066
-28.9035 -48.7671
-26.7047 -48.8984
-20.302 -46.9206
-24.5549 -39.31
-21.1995 -40.6109
-18.7251 -43.0836
-17.7225 -52.0655
-23.9093 -43.6601
-19.5706 -47.6479
-15.6031 -52.319
-16.1869 -55.5418
-17.2382 -49.7891
-24.7669 -52.2455
-20.8294 -44.9298
-17.4741 -45.5478
-19.7559 56.2
-22.4584 56.4809
-15.0186 -55.9745
-10.7122 -47.4826
-16.4956 -45.2768
-9.5882 -51.8404
-11.9791 -51.4963
-2.20995 -46.4348
-9.98928 -48.492
-7.00118 -49.2345
-0.800419 -49.4565
-7.37465 -43.0314
-2.56849 -42.8741
-3.86037 -44.648
6.76493 -46.044
9.90413 -44.2185
-3.85325 -33.1583
-8.29803 -38.4549
12.4142 -40.8092
-2.17774 -39.5075
13.1868 -42.4284
3.55367 -47.0286
6.27686 -47.9143
2.0081 -44.7713
7.29812 -47.1878
11.0192 -56.748
5.79614 -40.9952
9.16149 -48.1068
0.0749794 -47.445
12.1962 55.8717
17.7992 51.8168
17.8724 -48.7739
22.1743 -49.6032
18.4043 -53.2899
16.2769 -37.7353
20.5599 -47.4951
23.9953 -46.0498
22.2012 -42.982
34.1432 -51.5902
22.0444 -46.8995
26.9318 -42.781
26.6115 -43.9036
22.8227 -47.5978
37.3474 -52.1508
24.8868 -48.2056
36.1248 -52.4286
37.32 -47.4518
34.4381 -46.0918
29.8769 -47.5927
39.839 -45.4967
37.7048 -56.8541
38.8974 -54.0561
37.2685 -50.1204
41.0723 -45.696
45.5041 -42.8622
42.2799 -50.3804
39.576 -53.1395
35.0439 -49.6296
43.8597 -50.7814
47.603 -48.2864
47.5621 -49.5035
-53.0249 -41.1583
-56.0363 -37.891
46.3883 -43.5556
46.6491 -47.0242
48.1252 52.9225
53.221 -45.9268
54.0424 -54.6951
50.338 -55.1938
53.461 55.811
57.1072 53.763
54.4964 55.9603
-45.0611 -40.555
-45.97 -55.244
-50.3777 -50.0788
-49.9789 -44.497
-33.0905 -48.6435
-42.8547 -50.683
-38.59 -47.6893
-40.8236 -43.9816
-31.9129 -42.4538
-44.8394 -44.6997
-34.7431 -47.8764
-26.6314 -39.0682
-32.6475 -41.7703
-22.0639 -42.4396
-26.6233 -53.8676
-19.3024 -53.5167
-19.0191 -46.7746
-29.2133 -39.4026
-20.3298 -45.9104
-23.3929 -40.471
-31.276 -40.2388
-15.895 -44.2629
-21.9382 -47.97
-18.3077 -52.9987
-11.6544 -43.1519
-20.2889 -54.3175
-21.2992 57.0299
-19.3553 -54.7094
-14.9968 -53.4327
-8.04413 -49.2516
-5.30278 -47.6072
-13.5906 -46.572
-11.4939 -42.1237
-13.5996 -42.3045
-7.34647 -54.7051
-12.069 -39.4698
-4.64789 -46.7384
-9.53422 -44.3904
0.858572 -45.1848
-1.26842 -45.5309
-3.04516 -48.54
-6.38636 -42.8312
-1.58131 -36.6378
4.47906 -34.3874
-0.27548 -38.2595
8.69214 -37.8079
-1.30854 -40.0558
3.90182 -33.5514
12.047 -35.6754
-1.22109 -42.2321
10.2792 -48.1964
13.8465 -32.2929
8.9699 -49.971
13.4027 -53.246
5.66446 -45.9682
10.8235 -51.3036
10.0034 -50.1747
16.0852 -49.2069
10.759 53.1749
13.4099 -41.4274
12.9626 -46.272
13.5287 -49.1317
17.4921 -39.7695
14.7482 -51.7663
13.414 -50.232
17.4616 -44.268
19.1833 -42.7236
19.3009 -43.8725
18.842 -55.8852
25.5118 -46.101
17.6459 56.8821
31.577 -45.1045
27.8087 -47.3476
30.7112 -50.36
40.375 -48.9266
42.3309 -48.8456
36.3644 -42.5294
39.2759 -44.3882
34.2374 -48.9748
39.2002 -48.5254
46.2901 -37.1228
43.4408 -41.3332
39.4719 -49.4795
46.3152 56.5945
46.9844 -45.9719
44.3359 -40.7718
46.9503 -56.0466
49.7749 -50.0338
55.4527 -45.2044
-52.5454 -37.5888
49.3853 -51.2246
50.3496 -47.8801
47.4788 -50.7362
55.4326 55.2199
56.6877 52.7426
-51.2457 55.7108
-55.8649 -54.9765
-50.7306 51.1539
-51.2684 -49.6329
-50.1717 -48.038
-46.3839 -43.4722
-44.3336 -43.8168
-45.4279 -46.4746
-47.636 -52.8058
-49.7036 -53.091
-42.7959 -49.6682
-36.6187 -43.4185
-37.6327 -38.1295
-29.2546 -38.0355
-38.6279 -44.8163
-30.5551 -34.5554
-24.7821 -48.7086
-24.8865 -40.4703
-25.653 -42.6167
-17.0123 -44.252
-19.3635 -44.114
-26.7501 -45.7992
-21.1582 -43.8709
-27.8963 -39.5636
-23.1356 -44.5828
-13.0874 -43.2928
-19.5514 -50.852
-10.902 -44.2272
-19.6531 -42.5504
-15.8036 -40.2166
-17.2148 -53.9403
-10.6266 -43.167
-15.376 -46.2655
-11.9475 -55.4004
-16.3578 -50.3861
-10.8151 -54.5104
-14.0889 -43.5222
-8.41592 -39.5121
-8.52298 -54.021
2.9372 -53.9457
-4.19155 -47.7779
-14.4712 -47.0368
-5.57942 -43.6745
0.97448 -50.0907
-7.52702 -39.9635
2.19871 -41.0384
1.32603 -46.9218
4.67598 -29.3406
0.794844 -41.19
1.15563 -48.8499
5.20655 -31.6077
9.69221 -40.352
11.3531 -40.7014
16.353 -41.0267
14.7952 -42.4606
9.79452 -47.2311
22.3466 -41.6534
18.0298 -37.7872
10.3745 -45.8404
5.47224 -42.7804
14.2636 -47.2075
16.2954 54.4083
14.1349 56.5197
15.085 -56.1113
18.0618 -47.6857
33.3356 -37.2086
24.4645 -44.0635
24.4238 -40.4928
23.3489 -44.2973
26.7694 -40.4973
28.2568 -41.0649
19.6232 -46.9529
29.8734 -43.7241
16.0952 -36.7112
20.7177 -49.8449
34.3945 -55.3793
22.3467 -44.3899
29.7631 -51.6043
31.03 -47.9213
29.453 -46.2064
30.5265 -45.4134
25.0614 -45.2
40.33 -44.5968
34.6546 -48.0162
44.0276 -38.0488
39.2935 -51.4952
49.0147 -45.5682
40.3679 -50.0732
40.241 -46.4989
46.9636 -53.7157
46.4613 -48.5217
45.3091 -49.0864
51.1831 -42.2849
46.5768 -42.5319
53.4865 -47.8717
55.4731 -47.7648
52.6285 53.5317
55.6343 -53.5594
-55.1939 54.266
-56.801 -52.8632
-52.6704 -51.0133
53.5914 -51.102
-48.7299 -44.0793
51.2029 55.4876
-46.1475 -44.6106
-42.2631 -45.7531
-44.2988 -47.8596
-45.8023 -47.3919
-43.236 -43.5838
-35.8365 -37.0277
-37.7076 -36.7157
-37.0329 -40.2227
-33.9496 -39.7013
-36.7354 -44.6567
-31.0235 -45.2882
-29.1669 -43.7667
-27.8636 -48.8478
-24.6897 -46.1132
-19.2341 -41.2325
-24.0848 -42.6208
-28.6559 -41.5634
-28.8995 -36.282
-17.8795 -48.9209
-24.9249 -43.3434
-20.1253 -40.4814
-20.5613 -34.8244
-25.6587 -45.6384
-16.1857 -56.55
-16.4216 -54.5773
-21.4411 -41.6768
-19.2719 -49.7425
-17.2194 -51.0099
-15.2871 -45.1726
-12.5464 -42.4258
-15.6949 -51.2559
-11.1906 -48.6012
-7.3636 -45.0778
-6.56491 -50.5487
-14.2684 -44.5689
-12.5965 -46.1674
-12.986 -44.4245
-5.42435 -35.7463
-5.04195 -44.7056
-5.32263 -39.2895
-3.33961 -46.6638
15.3074 -34.4155
0.751909 -29.9972
10.6617 -41.6699
13.5783 -25.9983
-6.35969 -41.7418
-4.76327 -40.2076
3.28365 -37.7825
19.6764 -39.1219
2.40109 -47.2522
7.91842 -50.0247
8.84457 -43.5268
9.77231 -42.8632
11.5709 -53.592
12.0483 50.3444
6.18843 -49.0262
8.59163 -48.9778
16.0793 -43.1366
13.8047 -52.2382
14.1951 -48.2974
16.6813 -50.7361
19.1961 -44.8949
21.1528 -41.8214
28.7377 -39.8894
18.1248 -38.7971
21.804 55.1153
30.5789 -38.9067
32.9275 -35.5376
30.4482 -36.2388
17.7137 -35.944
24.0782 -45.0152
25.4539 -44.2636
20.8456 -42.8832
24.0769 -48.9022
31.4142 -43.097
31.4926 -46.3527
31.0346 -42.1318
28.728 -49.4474
38.1977 -49.5903
39.391 -47.4563
38.8107 -52.4382
40.0523 -43.3377
34.4716 -50.585
36.9258 -41.4165
54.822 -44.1832
47.7169 -51.7457
49.8964 -44.7827
-57.0888 -54.7263
47.6194 -44.253
52.0092 -41.6231
52.0407 -49.3061
51.1849 -48.4698
48.2434 -47.4658
53.1773 -43.2576
55.7271 -55.9628
-50.8281 -53.1092
53.9845 54.9014
54.1803 -46.2116
56.5263 -56.6368
-42.4853 -48.6969
-48.3896 -41.1141
-43.2725 -45.816
-36.5907 -47.5049
-49.5934 -43.5665
-43.8079 -44.6692
-41.2836 -35.7687
-36.0769 -48.3793
-34.5089 -44.8169
-31.7344 -38.2626
-32.3449 -40.7043
-24.1036 -41.4215
-30.2699 -42.9398
-26.1103 -44.1354
-29.2916 -42.7509
-22.7598 -45.7065
-28.1307 -38.5874
-19.5407 -34.7448
-21.1113 -42.8229
-15.2633 -43.3896
-31.7882 -39.3559
-21.7294 -37.9856
-15.5407 -42.3751
-12.7754 -41.4082
-7.02141 -33.0922
-19.4938 -45.1035
-7.27434 -35.796
-9.70959 -42.7271
-15.1349 -48.7894
-15.954 -48.2356
-13.0606 -39.0654
-13.9454 -37.0603
-12.0051 -40.7669
-7.69079 -42.034
-8.51035 -47.0396
-10.7974 -39.93
-6.78098 -40.711
-7.04704 -38.5989
-3.85932 -30.8134
0.30699 -44.1954
1.46173 -34.3394
5.88877 -37.7284
-1.22132 -32.6774
0.522303 -36.7648
3.9434 -32.4043
2.7703 -32.1819
2.3752 -39.5658
26.3526 -35.9258
6.10036 -42.0029
8.17206 -45.2031
9.43585 -45.1457
13.0931 -43.8627
14.2252 -34.9482
12.2017 -45.4356
17.136 -49.7464
7.5205 -39.9067
14.3864 -40.6664
15.6935 -45.6345
18.8089 -39.6819
17.7997 -50.7277
8.71737 -47.1727
13.4648 -40.2783
20.9767 -45.2007
12.7644 -39.3913
15.4409 -40.3323
19.5248 -40.4719
32.7546 -46.9824
26.9606 -30.8323
35.1451 -38.2305
21.0956 -46.6157
27.8722 -42.3847
23.5947 -41.131
18.2854 -49.7781
33.4032 -46.1996
26.2272 -44.9366
30.1135 -40.0421
20.1714 -44.3987
36.8524 -40.1326
38.4317 -47.1419
35.8772 -47.5494
40.4911 -47.719
36.1837 -46.4851
50.9828 -46.5276
33.9727 -47.0757
51.2432 -49.9795
43.2514 -47.1271
51.7678 -43.849
54.9875 -43.1605
44.5424 -43.9887
50.0591 -52.0071
-55.8603 -41.8328
-56.3446 -48.7646
51.3497 -51.2527
56.3084 -46.9284
-55.9159 -47.5842
56.5772 -44.8071
54.215 -52.2244
51.0045 -56.256
-41.9322 -46.8348
-46.5308 -51.3302
-51.0998 -48.5461
-39.9565 -52.3749
-48.6144 -52.0464
-50.5856 -42.1044
-45.8922 -42.4031
-40.5401 -45.0394
-36.1846 -39.6746
-40.3309 -31.5551
-34.7947 -40.8812
-47.5184 -40.1952
-33.5456 -40.8046
-35.7904 -45.7723
-38.3907 -34.3409
-34.812 -34.0685
-25.6421 -39.1742
-24.958 -38.384
-35.3576 -36.1094
-11.4104 -38.5325
-15.2008 -32.1487
-26.1291 -38.1716
-18.6834 -42.0942
-14.7877 -40.7026
-15.7538 -35.3608
-19.6463 -38.5277
-18.8962 -39.7544
-13.4008 -37.9391
-17.1483 -38.7077
-18.5221 -38.6258
-13.8918 -53.0899
-16.737 -39.7468
-6.58242 -37.4389
-17.9916 -44.4806
-8.5618 -42.5454
-11.5865 -46.7105
-9.83689 -37.3753
-5.0556 -31.0588
-9.19764 -46.1595
-6.64366 -46.1541
-8.86268 -41.5869
2.14342 -38.3607
-5.33103 -34.614
-1.79424 -30.8559
-1.23293 -34.6535
-2.85776 -31.2611
8.49091 -27.954
1.52842 -40.2532
2.0211 -37.3269
-2.69585 -40.3687
14.5083 -33.2981
8.62699 -39.9672
16.4551 -39.9268
24.8315 -41.8937
18.0471 -42.545
19.6222 -34.8196
13.2719 -34.4136
18.8505 -41.3672
33.7096 -39.246
11.959 -51.6678
8.01706 -44.1817
14.9524 -46.4657
16.3042 -52.9735
12.0587 -49.7079
16.8718 -42.3287
16.7894 -45.2288
17.8845 -46.5968
23.5914 -43.191
30.6978 -41.1624
31.8184 -38.6918
29.6323 -41.3524
37.9714 -37.2269
37.6715 -33.0554
36.777 -38.8894
40.3631 -42.2858
34.1945 -41.4922
27.5796 -50.692
23.9225 -47.6737
32.1514 -47.781
37.2726 -46.3529
26.5251 -51.136
32.5743 -49.9369
27.0133 -41.5823
46.8117 -52.7271
40.3428 -51.2132
45.505 -39.8438
43.233 -45.9273
46.3366 -49.5427
-54.7574 -42.3519
-56.2776 -35.7976
55.5069 -40.9517
-55.6514 -40.7041
-56.838 -49.7015
55.3873 -46.3902
52.0598 -42.8107
-53.55 -50.4907
-52.5284 -49.8672
56.4574 -52.4701
-53.5887 -53.9862
54.9338 51.1181
56.9076 -55.6685
-44.5363 -45.7265
-54.6622 -52.4204
-48.8124 -57.1515
-54.6771 -51.4135
-43.5026 -42.5811
-51.8203 -46.5446
-42.903 -40.9751
-40.9951 -40.5167
-44.3607 -46.783
-38.3273 -40.1581
-35.6445 -44.3336
-31.2326 -41.3649
-26.5201 -43.1191
-24.023 -45.0992
-27.0231 -35.9353
-38.7627 -38.6702
-28.2792 -40.6039
-33.8436 -37.9653
-19.8599 -32.1371
-24.8718 -44.5507
-27.7156 -36.7116
-7.96701 -32.573
-23.8265 -37.5516
-22.2133 -38.8916
-15.1835 -36.4645
-10.8021 -37.6841
-14.1453 -39.6386
-14.5057 -41.8654
-15.2551 -24.4548
-17.1349 -32.3709
-8.72991 -43.5567
-13.0256 -40.1783
-14.6574 -37.8623
-13.7816 -40.9509
-3.68356 -40.1184
-8.01026 -46.0119
-15.7583 -47.1899
-2.63057 -34.9388
-5.48692 -37.13
-6.86801 -28.6898
-4.53898 -36.7332
-2.76815 -37.8816
-0.386773 -33.2774
-6.05101 -24.1416
6.97184 -31.9491
0.929589 -31.0603
8.14809 -32.0239
0.668332 -39.6323
8.98729 -36.7658
4.67221 -39.0725
3.39889 -39.0372
10.8095 -46.8845
14.7389 -45.3071
3.20901 -40.1568
16.3067 -34.4037
11.695 -39.4253
17.168 -30.3545
15.7576 -41.946
13.5301 -44.8511
12.3835 -41.8156
15.3289 -47.4682
23.2476 -42.1529
18.9077 -48.4152
22.3652 -40.5035
24.5457 -38.3336
30.7655 -44.1888
24.5959 -36.2196
28.5242 -44.3324
31.0595 -37.9549
32.4457 -43.948
34.2225 -28.6914
31.6186 -40.8008
33.0482 -38.3017
33.4876 -43.8301
27.6842 -43.5485
23.0942 -45.3483
21.1856 -51.4308
22.0167 -45.7878
46.4129 -39.0063
50.8474 -41.288
28.5859 -50.5656
36.5365 -45.5428
38.8909 -50.4522
49.2373 -47.1734
44.245 -49.5137
49.1384 -41.4509
55.2741 -42.0235
53.9883 -39.4346
52.7053 -39.3398
-56.4004 -44.4604
50.8667 -43.3936
55.299 -35.7435
56.0168 -43.8143
-54.6913 -50.0393
-52.6072 -44.6535
-55.9382 -42.887
54.6132 -53.85
-51.7064 -52.6053
-48.8796 -55.417
57.1614 -51.7463
-49.9412 -57.1973
56.1794 -51.4673
-56.884 -50.7935
-40.832 -46.9509
-41.9132 -37.7142
-48.3245 -45.147
-37.8101 -47.0678
-40.0196 -40.7752
-47.3321 -47.1293
-35.4205 -42.8184
-27.6236 -41.3851
-30.2443 -41.5637
-33.476 -34.6458
-39.3918 -37.8214
-32.9297 -39.8966
-28.2924 -44.3909
-33.7194 -36.1199
-43.996 -37.2531
-30.5096 -36.3819
-18.9201 -30.2046
-28.5603 -37.2666
-22.4243 -35.8686
-18.5006 -45.4468
-16.2123 -41.2428
-12.8144 -29.0936
-14.2501 -29.9839
-12.1591 -35.0343
-18.8889 -35.945
-17.6716 -43.081
-17.2379 -40.8906
-0.126795 -30.7067
-0.687397 -43.0805
-10.4039 -38.9142
-6.947 -29.8815
-8.59679 -40.5195
-10.0392 -45.4687
-3.96749 -37.5568
-4.9145 -33.6225
-7.18478 -47.0401
-5.93808 -49.2573
-7.15511 -34.1647
-3.9452 -32.0547
-0.703854 -37.3119
-0.196122 -40.2004
1.73595 -33.2628
8.582 -35.7763
7.71586 -42.9188
12.9569 -36.6106
14.7444 -39.5678
7.69961 -34.972
24.648 -39.395
18.4624 -35.2503
9.54722 -35.3687
20.4573 -39.8556
14.9267 -44.2645
26.5168 -36.909
14.3427 -35.9473
27.6075 -39.8551
17.6053 -41.6336
20.2681 -48.5894
17.2785 -35.0244
25.936 -41.8766
19.1975 -45.9261
22.3758 -38.5618
19.7026 -41.8688
19.1311 -38.2628
34.3523 -33.9544
30.4494 -32.5081
32.0357 -41.9282
38.2311 -30.9763
34.216 -36.2415
37.4532 -35.387
36.4921 -35.8341
34.8346 -39.3328
31.2303 -39.8763
28.3415 -48.4467
26.7701 -45.8234
44.2934 -47.4425
43.4732 -44.8247
42.6396 -44.2363
45.9524 -46.1798
41.2476 -46.9938
41.5208 -52.2374
41.4458 -38.3317
50.6269 -39.146
48.6502 -43.8463
56.3777 -41.6677
-54.7301 -34.9641
54.6929 -36.9461
-56.8284 -33.7669
50.8639 -44.4277
53.3305 -44.6198
56.5937 -49.4405
56.6114 -40.5621
-56.8447 -43.5512
54.3261 -47.2845
-55.7203 -50.5058
-49.5235 -50.6908
52.1492 -46.1733
-49.7978 -49.1435
55.1794 -51.5949
-55.7838 -51.7229
-48.7463 54.2826
-55.8318 57.0057
-54.1034 -45.5348
-50.6769 -52.1238
-45.5791 -45.4409
-43.0841 -47.0824
-36.6681 -42.4273
-32.7597 -38.3604
-42.4385 -33.6629
-44.7731 -33.9508
-35.6839 -38.5338
-41.1801 -29.6439
-39.0062 -33.0657
-38.3877 -35.8393
-35.5289 -33.0941
-35.7516 -35.1014
-25.6372 -46.6976
-36.6649 -33.1157
-16.2055 -38.4072
-23.9961 -32.904
-18.1952 -40.5892
-10.5765 -33.6943
-11.1088 -30.4987
-15.5688 -37.4482
-17.5609 -24.8168
-10.1532 -31.1507
-9.92408 -35.6889
-16.8055 -35.1484
-18.4566 -34.8644
-9.55423 -33.6199
-9.82876 -40.8382
-4.62629 -38.3425
-14.4226 -45.8515
-10.9104 -40.973
-3.87203 -42.3734
-11.6481 -37.0123
-4.23772 -41.3898
-4.73264 -48.7291
0.959751 -32.2501
-0.123218 -32.2386
-0.829464 -35.8307
-1.03307 -31.5242
0.471978 -25.1638
6.70488 -37.0235
3.05765 -34.2562
10.9044 -37.6975
11.3611 -34.601
4.8905 -40.1744
11.8435 -38.2019
21.2751 -38.7061
23.4584 -36.5265
23.3124 -32.3083
29.1786 -36.6501
25.6187 -38.4164
27.9294 -36.3651
22.3636 -36.5069
31.2722 -35.3433
17.4832 -36.9395
24.9631 -42.9402
26.8115 -35.0503
27.8048 -46.138
33.3117 -34.4349
29.2844 -38.9943
18.0703 -40.5847
18.31 -43.6293
21.1441 -40.6017
35.7098 -34.2055
34.919 -37.1987
36.6108 -34.7277
38.946 -39.9991
38.2813 -36.1797
41.8382 -40.6906
29.9714 -42.4126
35.1757 -45.2193
28.9916 -42.1291
39.2496 -46.4563
33.7054 -40.2552
41.4106 -49.2236
44.3697 -45.9396
-57.0305 -42.1286
44.0878 -42.4265
49.4541 -39.0952
49.9926 -48.9123
49.9293 -42.0973
54.1003 -41.4595
50.7475 -40.2698
-54.5195 -38.9213
-56.7151 -40.988
54.0081 -42.6837
-56.7611 -38.8303
55.2758 -52.5878
-56.9193 -46.4268
51.7524 -47.1691
-53.5051 -43.1387
-49.649 -51.9321
-44.5326 -42.7162
50.5895 -54.1282
-53.9112 -49.4249
52.9938 -48.9185
56.029 -50.3967
-44.6074 -39.3708
-53.5353 -42.0353
-42.514 -41.9231
-49.5255 -45.5438
-38.7754 -46.5187
-39.467 -30.7861
-41.7035 -31.8461
-43.5734 -48.8033
-35.151 -39.6234
-29.8435 -35.6268
-36.0396 -34.1001
-31.0064 -30.749
-24.9958 -33.1899
-37.8846 -33.2482
-41.2586 -33.1621
-39.3126 -36.6116
-44.2576 -28.475
-26.1126 -40.1739
-19.355 -33.6035
-16.3714 -36.3145
-23.1529 -38.287
-18.3753 -37.6003
-17.3584 -36.9485
-14.8961 -33.9374
-25.6632 -36.3405
-16.1837 -34.2211
-21.3982 -39.5778
-10.4852 -42.0551
-2.18346 -29.1344
-8.21191 -44.4274
-3.76174 -36.0707
-12.7965 -36.0951
-6.03544 -33.5269
-4.03993 -45.9099
-13.2304 -51.8638
-10.0306 -34.6043
-14.0454 -36.067
-1.23879 -30.0023
-9.01818 -32.7068
-2.11959 -28.0009
5.38608 -26.4973
1.99733 -21.5146
9.8857 -28.0075
3.77567 -35.249
4.35836 -28.0529
13.8428 -37.2714
12.0277 -36.9592
18.1326 -45.5467
13.7646 -38.5049
19.9642 -31.5943
16.3788 -32.7367
23.8859 -37.5354
26.8897 -39.084
32.8543 -33.3334
20.7933 -35.0314
28.7948 -35.7121
29.533 -33.0627
20.0569 -35.8854
21.2953 -37.4559
23.6171 -38.7732
32.5935 -36.5192
21.8343 -35.2954
26.9878 -38.088
35.3555 -35.251
35.6168 -30.4945
27.9303 -38.8876
27.2867 -44.6526
32.0516 -37.537
32.2222 -27.9778
35.8855 -39.5091
35.5248 -48.5888
38.5259 -45.1771
36.7009 -36.9534
24.6773 -46.9407
32.9028 -43.0198
33.2547 -44.9196
42.1554 -45.3833
54.3038 -35.8374
42.4183 -47.6631
43.2028 -49.5238
38.9493 -41.9944
51.8884 -40.4145
45.6437 -41.6974
51.4506 -45.3995
47.401 -40.7575
54.6272 -34.8293
-55.8523 -28.789
52.3193 -34.6502
56.3279 -45.8921
46.7072 -27.373
50.4926 -28.8003
-51.7572 -45.3809
-53.9364 -47.7795
-54.5377 -41.0217
-43.8276 -40.2211
55.4382 -49.1743
-52.0879 -48.7624
-54.812 -40.0407
-52.889 -46.2204
53.0133 -46.923
-52.3792 -42.2265
-48.6869 -49.9282
-39.5982 -34.2203
-47.2243 -41.2287
-43.071 -37.7139
-43.5401 -33.8126
-31.1605 -43.6989
-36.4545 -35.8397
-34.2206 -36.9852
-40.5879 -33.962
-36.3763 -41.3971
-41.9852 -30.2906
-39.2168 -32.0391
-44.9406 -36.8825
-42.6731 -32.2671
-37.4614 -30.3473
-43.2026 -35.9243
-32.7633 -33.4497
-30.2312 -40.266
-25.3604 -37.4753
-25.9206 -34.9472
-31.2489 -37.3293
-16.2612 -28.0419
-15.1231 -30.6563
-22.993 -31.5579
-20.4583 -37.6867
-8.89186 -36.1281
-9.2221 -31.6236
-9.02376 -35.0328
-17.6169 -35.917
-11.7834 -35.9963
-15.693 -33.2472
-4.99269 -32.0885
-12.3904 -38.1833
-14.7219 -35.3371