ITEM: TIMESTEP
63000
ITEM: NUMBER OF ATOMS
10000
ITEM: BOX BOUNDS pp pp pp
-9.9000000000000000e+01 9.9000000000000000e+01
-9.9000000000000000e+01 9.9000000000000000e+01
-1.9800000000000001e+01 1.9800000000000001e+01
ITEM: ATOMS x y
-84.1874 -93.1126
-98.2113 94.8651
83.3652 96.3923
-86.7495 98.2493
-96.651 -86.947
-82.7016 -92.2292
-88.3571 76.7897
-76.9704 91.4202
-75.2922 -95.0988
-85.1129 94.9193
-46.8758 -88.5166
-95.7027 94.4254
-66.4804 -95.606
-79.0539 -90.2683
-84.5005 86.0269
-84.1923 84.9106
-63.853 -98.7973
-76.0232 98.7946
-60.6383 92.9215
-59.4756 -88.9863
-65.2711 80.002
-63.387 83.0464
-58.8125 89.5279
-56.7488 84.5672
-59.9713 -98.3214
-64.2658 -88.0501
-39.9352 84.8226
-30.5343 83.6279
-40.0487 93.1874
-44.6284 89.3672
-58.4164 88.0779
-32.4728 93.5658
-43.2167 -95.4428
-26.6612 94.6089
-36.1437 93.2294
-33.407 87.759
-37.7446 -92.8949
-38.6631 92.7875
-32.7838 90.7987
9.12816 73.238
-16 -93.8996
-2.67233 93.7
-48.3371 -82.3839
-23.7218 89.2762
-20.9993 90.697
-36.3727 97.236
-26.8494 81.5296
-18.882 92.5023
4.85066 95.2917
-2.18391 -84.305
15.5909 97.9453
-0.694365 -80.707
0.403115 -86.9471
19.0609 -88.9546
-1.8347 82.3356
-4.56579 -98.2742
30.9298 91.6068
14.8265 -88.4778
8.77386 93.2122
18.1424 -88.5585
20.1062 70.7251
30.2581 92.4917
27.951 95.4177
25.1774 -91.6546
34.7593 -94.2058
11.9856 -62.3095
32.0351 -77.1357
48.1982 -74.4439
43.5758 -93.7644
37.5632 -78.9773
25.6113 -94.1486
40.6941 -95.5243
35.7041 79.9379
33.4947 94.9172
36.1501 -88.57
37.9067 96.284
54.4643 82.2029
51.5219 84.3121
56.3847 93.5691
58.4985 73.1529
44.1239 91.9339
65.7012 91.231
67.2556 98.6111
42.0159 97.5417
62.9174 95.506
54.6821 95.2593
58.7509 -98.0949
73.0324 -90.3991
73.4209 73.4424
74.5131 -82.8152
82.1856 -96.1231
80.2608 -97.9553
72.1952 -95.6054
82.5138 97.4303
92.1338 -86.7956
88.7442 96.8908
98.4471 97.2752
82.1405 -91.9597
84.5938 92.6989
91.7742 -95.582
92.5981 -77.9902
-98.1673 -90.7967
-91.6202 89.6996
-75.879 -93.6411
-88.0041 -91.9546
-94.1736 90.832
94.3377 89.508
-82.8471 84.2126
-69.2308 81.7878
95.457 92.2117
-88.0549 -68.2979
-85.0307 93.4595
-86.9224 -96.8567
-60.9995 -91.4709
-82.4399 87.1387
-77.6742 97.1619
-70.5303 98.8073
-70.4248 -94.7967
-83.5359 93.8787
-48.8866 95.5829
-53.8247 -72.6928
-43.6473 -86.6943
-66.0123 -92.7209
-37.8438 98.4843
-59.1159 -93.0697
-41.1539 96.418
-69.3486 95.5482
-44.4765 -96.7789
-43.8406 87.14
-33.9662 91.3571
-27.5682 78.5687
-33.489 -91.6432
-32.2954 94.8012
-52.2893 97.7271
-42.3496 -98.3639
-30.0034 91.8498
-39.1591 98.23
-24.5913 87.0418
-9.4625 87.4152
-23.8443 -87.5465
-23.7719 -92.6127
-25.7576 88.2838
-19.0124 96.3391
-14.1803 -94.3599
-23.1985 -96.285
1.32721 -85.7848
-12.3814 -74.0044
-9.35712 -95.3099
-7.38851 91.6449
-5.53954 -88.6852
-5.54588 98.2658
0.643599 93.0115
-12.2416 97.0305
26.9178 -94.8323
24.0611 -90.2694
17.2642 -87.1071
-8.56666 -89.9722
3.97513 80.4708
19.8394 -88.2111
18.9467 98.8171
17.7985 85.1839
14.2965 -85.9188
10.2113 -92.9758
37.4709 93.65
31.3353 -92.6392
17.1738 -73.8756
9.54475 -83.5768
42.1146 -92.1093
46.0621 96.5655
30.0362 97.5346
38.1072 -86.4314
30.9167 -90.438
48.7402 97.9076
53.1448 -93.2072
47.5847 90.6973
55.3034 -88.4989
53.3573 86.7911
63.8124 91.8245
59.3714 88.3445
44.2916 93.7275
57.0642 94.3664
63.6915 -89.8454
72.2691 -93.7419
81.6953 -81.9185
59.7729 98.416
74.5193 -90.5876
69.624 -87.562
75.5346 82.9326
70.688 -78.7481
69.1764 -81.3956
-98.8547 98.8418
80.6928 -79.7511
86.0351 -92.2295
-91.6001 90.9447
80.739 98.3081
94.9091 -97.1582
-91.988 -95.6426
77.256 -90.2895
97.5583 -98.859
86.1548 84.3182
90.7634 -93.5862
-94.8745 93.7058
-95.3129 -93.0008
-77.5883 83.4858
-94.4141 95.5622
96.7153 -88.8654
-88.066 87.438
-79.0513 -97.2511
98.8857 -88.0856
-76.3374 -87.0895
-92.8289 89.9191
-61.9212 93.3914
-63.0711 -89.9077
-67.846 -96.913
-77.1265 -88.1741
-56.1416 -90.7386
-54.3669 -88.203
-67.2422 96.1825
-87.9486 84.1804
-68.9702 94.5661
-58.0884 -95.7482
-63.8601 96.7507
-36.6777 -94.7317
-49.4147 -95.6421
-57.5667 98.0762
-38.8652 95.8396
-54.5194 88.208
-46.5783 -96.6641
-56.7323 98.7275
-33.3078 -94.5488
-43.0434 98.1653
-25.3102 94.1043
-16.2068 -87.6138
-26.3011 -96.5721
-38.404 -90.1531
-27.4613 88.9794
-22.1689 97.579
-26.752 83.9656
-37.345 -84.4042
-18.9282 -88.9647
-41.7192 -95.8882
-23.2625 -79.9184
-0.193144 -78.6031
-24.347 69.7432
-39.471 -84.9774
3.89626 94.0761
-2.0684 -75.1829
-30.1768 95.8049
5.79711 95.9958
8.87037 94.5868
15.04 -86.7332
11.6957 95.3611
4.3653 -81.0928
2.51935 -90.3324
-27.263 -80.2186
19.8967 -77.6067
15.2366 87.286
-1.05933 85.9954
23.0088 -97.6013
28.8616 82.8216
11.9045 -81.1096
19.2235 -86.2492
35.9749 98.8376
30.1066 -89.7617
23.6142 -75.086
24.0097 95.5587
41.3228 -91.1115
26.3935 -89.0973
30.8345 -93.831
26.4877 -96.7545
36.6116 -95.9997
28.1247 -96.5706
29.6375 -93.9169
37.6247 -90.9333
69.6612 -86.2275
37.0844 -98.4398
41.7325 -94.637
60.153 -83.6945
55.2259 -93.6792
48.1081 84.7408
71.8368 97.9633
44.3965 -91.0979
58.2501 -94.0198
74.2892 -74.8943
62.9472 -94.6443
53.4085 -74.0356
62.0184 97.5398
95.777 -97.6832
66.6364 -97.05
86.4288 -90.9765
94.4182 -91.6409
60.6142 -93.3889
86.3901 -86.5865
94.8643 87.0846
88.2837 -86.958
77.3943 -80.2688
90.0109 -89.365
85.4629 -85.1705
97.6333 93.6335
-88.2893 -87.757
85.7327 -89.6589
-81.7531 -96.0471
91.2723 95.6617
-96.7985 -93.9785
-83.6288 98.208
-91.5184 79.5366
-85.4597 96.9627
-73.6424 -96.2776
-74.988 -96.6263
-60.9779 83.4221
-94.546 -97.054
-75.09 84.0375
-81.671 -91.5423
-55.4051 -86.4761
-71.4736 88.6416
-73.5934 93.9673
-84.4849 -85.6605
-64.2806 92.8174
-63.8082 90.0729
-54.3198 -95.2983
-60.1926 -90.2701
-49.6406 98.839
-53.4133 -90.5648
-35.6269 -76.4541
-62.0485 -89.1889
-59.4815 95.971
-42.0765 96.8402
-46.1639 -98.9659
-36.1623 -89.4128
-44.3891 79.9973
-36.1768 -83.4385
-32.2169 -95.8339
-55.4434 89.3541
-42.6539 -85.3091
-23.8116 95.3538
-35.5414 94.3662
-21.0299 -83.9246
-20.2771 -98.2196
-12.5754 -91.6398
-30.4282 -80.7498
-17.6659 92.9597
-46.1419 -91.9805
0.00882914 -84.4806
-17.5056 -95.7154
-24.1205 98.5236
-27.1528 90.8037
-27.7743 87.89
-17.5657 -82.9418
-10.7868 -84.8142
3.63303 97.7676
-19.2163 98.9031
9.23807 -94.0627
7.7866 -75.4792
11.7142 -96.1316
1.73305 85.6936
7.18671 98.1872
22.5612 98.6
14.3586 -89.4236
27.9586 -85.2571
18.6432 90.654
12.9762 -78.6771
31.2699 -82
12.9319 94.6815
27.5401 -83.1785
40.6893 -87.7709
20.3612 -71.5999
12.5996 -84.0301
32.764 -75.6466
33.4775 -96.5514
46.7682 -90.8904
32.062 -89.2939
42.9621 -77.6843
41.9512 90.6416
28.1817 92.627
22.9864 86.9874
46.2835 -94.2015
50.022 91.1039
52.5854 93.5857
35.768 96.88
64.6599 -90.3026
61.5662 -88.2126
43.3013 -95.6576
50.7639 98.6808
55.7759 -97.8206
50.7303 -87.5686
80.1929 -90.653
80.4147 -83.3714
78.6504 -85.7575
69.7472 -78.2922
-92.681 94.8092
81.8555 96.0559
83.3379 -91.149
88.4577 -91.7643
88.9392 -77.7397
85.2195 -83.1873
-97.2023 -88.7074
79.0319 -80.2865
88.1056 -95.2175
75.3628 97.3358
97.286 95.1102
96.2307 96.7694
-81.2151 -94.6402
-95.0023 -86.5702
-73.3906 -98.9129
-98.0008 -79.3879
91.4346 93.8696
-69.6053 -92.8867
-87.5812 88.8397
-68.036 -90.9469
-59.443 -87.5603
-91.3339 -86.5529
-98.144 96.261
-68.1016 -76.7468
-73.6728 95.1004
-83.5704 81.7186
-58.9337 -81.5653
-57.9334 -90.0629
-75.8752 85.3561
-75.6966 93.4412
-48.4452 -88.2931
-48.5801 -84.9068
-63.5959 -79.1201
-77.8096 -77.6109
-67.2328 -85.8667
-49.6539 -85.235
-62.3815 82.4313
-27.3549 86.6036
-37.5997 94.2675
-39.022 94.0077
-41.2991 91.4707
-45.5299 96.5974
-56.8626 -92.3807
-43.3682 -93.9941
-45.7516 -97.2596
-36.9162 -90.3423
-20.8071 94.1346
-26.9025 -93.7405
-29.6137 -85.9722
-32.0498 -69.1147
-20.8084 -86.3885
-26.535 93.332
-31.9072 -94.4422
-17.9727 -87.5297
2.44932 96.3166
-28.0063 -86.6981
-10.6446 96.6473
-8.27575 -88.4339
3.8486 -96.7595
-5.56137 -96.3907
-5.79384 94.9289
3.53815 -92.1186
7.70411 -90.1607
-3.19667 -91.1107
5.87117 -81.3578
-1.54526 92.2832
8.18546 -96.2535
6.73786 -93.4576
29.7739 -88.4857
36.98 -81.7022
16.6351 -77.5938
28.7276 -95.5448
17.1816 -91.2571
6.71426 -77.3976
20.6864 -83.5011
28.9672 91.201
19.5067 -79.3755
25.8762 -85.0557
49.4793 -85.2487
36.3409 93.2001
22.2854 -89.8345
29.0317 -91.6852
44.2637 -82.7204
24.0364 -86.5207
46.6081 -89.6675
37.246 91.4007
47.846 91.8847
49.8627 -91.2368
62.4986 -71.902
63.8377 -80.2558
60.7546 -89.835
59.7281 -89.6631
54.3798 -97.3659
89.8135 -98.1731
81.5602 -78.8591
68.767 90.4982
72.5665 -77.6569
64.4813 -91.9165
73.4951 94.6851
74.1974 -95.4934
75.5149 -84.8949
86.292 -95.0107
81.3563 -89.4391
71.7275 -83.8933
67.8483 -84.4952
91.6714 -76.7812
97.5612 -82.5536
91.1857 -80.2123
97.366 -76.9423
-93.8054 -90.3029
-92.0068 -82.0688
92.2946 -90.6124
-95.9979 97.9782
-90.4037 -97.6779
-87.6036 -85.0039
-82.229 -94.9383
97.8971 -75.474
-82.8164 90.734
-71.8845 98.6364
-70.5541 -64.6477
-73.9672 91.0615
-76.9547 -94.1423
-69.1412 96.6703
-72.9863 -72.4517
-92.0265 96.3547
-66.2481 90.0175
-57.3687 -89.1782
-89.5705 -89.5595
-68.9929 -91.9646
-51.0214 -97.9177
-64.2645 -84.9703
-65.6566 -79.2234
-63.3544 -75.5434
-70.981 -88.7445
-50.4262 -91.1255
-37.3646 -96.8372
-59.1186 -85.5701
-47.0236 -95.7171
-51.8464 -84.2518
-57.821 90.2808
-62.4094 -83.8617
-46.9368 87.0722
-28.2008 -80.682
-39.2771 -80.1469
-24.5218 -79.3034
-47.1588 -80.0303
-32.0765 97.2092
-33.4399 -86.0437
-25.5586 92.6606
-26.897 -84.636
-21.8213 -80.8599
-28.9013 -84.2777
-11.9587 -83.9604
-3.87365 -83.7384
-13.1107 -77.4744
-26.021 -92.5653
-14.5784 97.6704
-8.63666 -78.5218
-16.6091 -85.8432
-3.13714 -89.935
2.40105 -92.0131
-10.3464 -96.8785
-7.82288 -92.3429
-19.6066 -86.504
8.09217 -93.7412
6.78452 88.3028
-1.44419 -67.889
-1.62648 93.439
14.1073 98.2304
6.47323 -94.9048
11.0239 98.3446
26.9263 -84.9809
9.30935 90.0449
29.2665 -85.3129
7.03783 -86.2152
27.6478 -88.036
31.3766 -80.3696
32.0397 -84.5549
40.4147 -83.9965
12.1851 79.2259
21.906 -87.6952
36.8066 -70.8479
43.2165 92.7431
41.6222 86.7498
47.3204 -87.4283
64.7724 -88.3181
57.7312 98.3028
45.8429 -81.9026
66.9696 -88.3696
67.331 95.9207
42.2967 -95.7279
54.321 -91.0302
45.6473 -97.2613
59.1318 -79.8608
62.6992 -98.2157
66.304 -91.8483
61.7365 -90.6453
66.8048 -90.4313
80.4588 95.5848
87.8475 -82.2026
77.5425 96.6644
77.9775 -88.5239
81.6473 -93.0704
-85.5789 -95.811
88.7307 -92.9607
93.1522 93.871
-83.7574 -92.179
83.4364 -69.0224
89.698 -96.982
-94.3241 -73.225
97.6363 -92.2413
-98.0306 97.993
-94.2089 -85.9419
-94.5718 96.6357
-98.8491 -69.7582
-69.8287 -78.1295
-86.0012 -93.6759
-79.9598 98.1129
-77.201 -86.2915
-81.2623 -90.4253
-69.9886 94.0359
-98.6264 -98.0834
-87.9239 -82.3655
-77.2945 -82.4901
-65.7364 -97.7923
-65.4078 -96.265
-79.3353 -83.7342
-50.1865 -86.9296
-61.3371 -94.9969
-67.5566 -86.8979
-53.6351 -92.484
-43.5253 -88.7552
-61.5176 -90.6047
-42.1417 -88.1941
-56.3325 -95.8515
-51.5142 -89.3008
-46.7479 -83.1596
-58.7422 98.7315
-48.1537 85.734
-48.3534 -94.1772
-59.0567 -79.0186
-37.2754 -76.2106
-38.9422 90.6238
-39.6482 -86.3448
-39.1394 -75.7194
-21.6874 -98.79
-43.6498 -74.5328
-45.8816 87.1082
-39.9168 88.6943
9.02875 -96.8235
-8.2801 -87.0402
-19.6365 -84.2487
-24.9364 -88.0611
-38.3168 -83.406
-29.0607 -88.1636
-8.22052 -82.0294
-14.6609 -79.7549
9.19768 -91.8981
-5.60554 -98.2498
-9.53253 93.8265
-15.6705 98.4927
-3.89381 -86.4878
2.08847 -80.3876
-7.25033 -82.725
7.97292 -70.155
3.40721 -74.7524
11.8118 -87.2972
18.5112 -82.446
20.8782 -72.6722
2.6271 -86.3633
23.5467 -70.4117
15.5279 -85.1628
16.7378 -88.7351
23.0712 -82.2054
5.69273 -70.6329
34.1512 -93.2791
25.1363 -82.3565
17.2755 -79.0196
33.1181 -69.3932
29.8652 -80.9582
31.37 -87.4024
34.329 97.9494
43.2279 -84.3976
35.5397 94.1872
60.2382 95.4352
65.9639 -85.6757
49.8226 -88.6673
63.6046 -96.9006
60.3368 -97.76
50.0775 -72.5746
64.2803 -92.9832
50.5472 -96.8243
53.9301 -89.3151
59.4125 -91.1836
49.0363 -87.4945
62.1396 -86.5939
82.0999 -88.4282
86.9123 -81.3153
81.7328 -87.0551
74.5782 -84.11
77.4864 -92.5019
83.2042 -89.2136
87.8381 -88.7864
88.2983 -96.2746
95.8407 97.9662
74.1441 -93.2872
97.1148 -81.1699
98.8805 -79.8624
-97.6728 -83.3116
-92.5936 -67.0943
90.3881 -72.7286
92.8287 -84.6658
82.0856 -71.5203
-77.9581 -90.0611
-93.7336 -88.4651
-72.7511 -91.9823
-91.5557 -89.5573
-98.5725 -93.4058
-65.2321 -92.0552
-81.034 -85.9314
-75.5403 94.5386
-60.6881 -96.584
-62.8888 -92.522
-76.7649 -85.0252
-53.565 -97.0241
-76.0011 -90.0289
-53.2746 -89.288
-76.8467 77.3534
-75.6555 -85.7592
-86.0508 -77.5763
-65.0991 -65.1165
-70.7696 -76.8402
-55.4657 -85.4649
-65.6889 -82.3035
-40.0941 -98.3533
-45.5068 86.1576
-54.6213 92.251
-62.8356 97.4913
-48.3411 -91.9772
-51.1803 98.0774
-51.5159 -86.9134
-48.5044 -90.9418
-44.7282 92.5165
-51.1998 -93.9902
-52.125 -82.6466
-33.0503 -78.9676
-44.2709 -83.4354
-43.5148 -75.5266
-24.4255 -82.4432
-21.216 -89.6639
-18.2104 -92.4663
-18.6627 -75.8656
-4.95236 94.2561
-7.19456 -94.3273
-21.5152 -72.6654
-24.1791 -86.0145
-9.25201 -80.8854
-22.1173 -95.4815
-10.0166 -90.6607
-7.29671 -77.8976
-3.52871 -82.6829
-22.3783 -76.5244
-3.47871 -76.4831
5.60121 -62.1002
8.36119 -87.4028
-8.9384 -79.5033
-6.04208 -80.0891
-2.68223 -88.2205
13.7049 -67.0858
1.63769 -87.3625
16.5573 -85.1342
15.7201 -74.7343
23.729 -80.0483
25.0354 -74.3674
15.8095 -69.0225
23.437 -76.648
20.8231 -88.8914
32.6812 -88.1354
18.6617 -73.2226
45.1948 -89.3399
37.3248 -80.0374
36.6845 -94.5458
42.2905 -81.4247
30.1689 -78.9109
34.5866 -77.0061
38.23 -92.11
52.7537 98.2759
43.0024 -98.2073
53.359 -96.3441
56.3118 97.1633
45.2186 -87.9927
53.8805 -94.4823
45.8018 -87.1565
63.4853 -86.3335
63.1182 -79.3397
56.5625 -88.1512
89.4453 -83.5413
68.0551 -91.0095
82.2782 -84.5048
93.1618 -72.0376
67.762 -75.5412
83.6101 -84.2131
86.7214 -88.2742
93.0699 -93.5778
75.0444 -76.076
84.3459 -96.0932
97.7568 -69.3249
85.3205 -78.6716
90.2556 -79.0996
-91.454 -79.4502
84.2527 -85.1387
-90.3463 -83.3638
-96.7192 -84.3288
-82.045 -89.4354
96.5375 -82.3743
-81.2127 -61.8334
-85.5065 -65.8877
-93.18 -84.2897
-95.061 -87.7161
-78.6398 -75.0902
-65.6909 95.4012
-82.7235 -86.256
-79.628 -88.3694
-71.8195 -94.4037
-74.8884 -89.8505
-58.6411 -83.7267
-83.8758 -83.4851
-79.7815 -73.4691
-56.5704 -82.8399
-63.8475 -94.3978
-71.2115 94.665
-57.9773 -80.0008
-73.3146 -67.0879
-62.3447 -77.2701
-57.9826 -85.6054
-46.6631 -90.9902
-63.9401 -83.8323
-43.2713 92.7312
-37.4118 -88.451
-34.1335 -96.6599
-46.8367 94.0033
-48.3039 -75.7597
-43.5341 96.3001
-35.6145 -94.3349
-45.8455 -74.5859
-42.501 -77.8978
-34.4982 -86.036
-24.3068 -65.0911
-34.1833 -78.4258
-34.3657 -87.5365
-17.7656 98.5906
-8.70821 -84.9851
-5.57066 -93.276
-18.4051 -60.2456
-18.2046 -77.6929
-25.5931 -79.6537
-17.1807 -86.8692
13.5851 -74.743
-22.3348 -70.8506
1.55274 -83.7877
8.5963 -80.1465
-0.0351289 -87.9293
-2.08748 -89.8119
4.31542 -76.5929
-9.9092 -98.2937
3.03585 -93.1449
26.7576 -86.0663
-3.72568 -73.4744
-6.06503 -71.0528
28.1236 -93.6649
8.11389 -77.832
4.87946 -65.0002
2.99181 -67.6578
6.87233 -74.4965
31.5314 -74.5601
35.3115 -85.3236
17.3553 -92.6864
42.5668 -88.3244
38.4646 -85.4022
34.8013 -87.0669
44.2945 -74.5889
32.2755 -65.3779
34.2585 -73.2534
43.4315 97.8082
30.5991 -95.5172
58.6783 -95.5455
29.8484 -96.3491
41.9723 -89.6068
51.4858 -81.9371
49.9561 -84.0367
39.8087 -88.5335
70.4405 -75.4073
64.3552 -78.5616
88.5714 -84.127
71.499 -76.3351
71.9062 -98.5591
67.1846 -95.5529
65.0787 -84.5038
75.4286 -89.1583
82.488 -64.316
73.7772 -72.928
92.1629 -75.0169
82.3827 -83.308
90.0188 -71.0277
74.1019 -78.546
95.0304 -92.7715
90.4719 -96.2901
-93.3096 -81.8326
95.475 -81.0582
90.8963 -84.6928
-93.7651 -61.7554
-80.9536 -87.0465
-79.1191 96.4583
-92.9626 -75.5472
-91.2555 -87.9658
-79.3354 -95.8726
-82.8624 -78.1041
-93.1195 -95.1535
-87.9118 -77.3682
-83.6914 -53.9333
-68.7379 -69.211
-85.7192 -81.4704
-81.4557 -80.1394
-80.728 -76.1854
-74.3776 -86.8607
-62.234 -74.8508
-62.4303 -68.1409
-65.6124 -73.9417
-69.7089 -89.6376
-59.2387 -82.7705
-69.3468 -64.3148
-42.1775 -68.0431
-48.9648 -65.75
-57.764 -81.5134
-27.4861 -85.5087
-52.7355 93.3929
-41.8181 98.0795
-46.0653 -79.7503
-46.3136 -82.0784
-64.0976 -74.0223
-36.6208 -72.1386
-28.0129 -97.4654
-58.0017 -93.2309
-33.6924 -58.21
-29.2805 98.4909
-32.902 -97.1682
-20.1248 -88.6592
-32.3937 -80.6131
-35.3714 -88.2492
-31.1434 -92.3307
-12.2327 -93.3727
-24.3208 -80.7939
-15.7136 -61.4661
-28.8478 -85.2734
-31.7537 -83.3303
-21.3024 -81.8118
-0.343275 -82.9288
-30.3286 -72.6265
-4.86952 -77.5109
-25.8365 -83.7806
-10.2686 -50.8682
-14.6926 -74.914
-4.92178 -71.7671
6.06234 -83.791
7.01763 -78.7919
-4.42433 -96.3962
-7.80447 -65.6332
22.2029 -68.4539
12.1374 -85.5062
12.4131 -94.0973
26.5461 -79.9505
34.1798 -63.2739
13.8578 -97.3161
43.9985 -76.2035
10.328 -71.3037
13.4881 -98.6992
42.2155 -65.4541
13.5266 -79.9785
19.2434 -71.2776
35.4756 -93.1346
40.9425 -68.578
38.4338 -82.2559
50.076 -95.2053
55.3638 -84.0447
57.4949 -79.8495
21.741 -97.3998
45.1471 -65.6253
62.4226 -88.9198
59.562 -77.7321
53.1731 -63.6332
55.3199 -86.9726
40.2412 -78.3509
53.5429 -65.2872
55.4251 -94.7506
57.5716 -86.1024
75.8808 -74.4428
73.4897 -85.5036
62.0915 -76.7953
84.0449 -81.2496
55.582 -95.9317
89.3668 -94.1501
80.719 -77.8385
92.5487 -60.2132
91.2957 -52.0831
84.5492 -77.5132
82.9309 -81.2757
70.8344 -73.3345
97.1569 -85.2638
-95.777 -84.869
91.8763 -72.4454
96.0831 -87.8927
97.4065 -79.9667
-75.3934 -87.6734
-87.2569 -90.9085
-92.477 98.6011
-78.1637 -64.4442
-71.6157 -81.3023
-82.944 -98.4322
-76.2843 -81.3638
-78.3048 -81.2427
-84.4106 -98.7273
-78.2964 -79.0944
-69.6104 -82.119
-72.8255 -80.2921
-67.6729 -88.7551
-87.1487 -73.1564
-70.1953 -74.9187
-71.8603 -90.7997
-71.9544 -74.3344
-41.1787 -57.6797
-88.5955 -73.8427
-70.7966 -90.674
-75.9379 -77.1456
-66.6405 -64.9651
-56.5542 -72.7255
-56.3954 -81.6432
-28.5052 -73.0795
-40.1796 -88.2485
-31.4259 -73.7414
-30.2651 -68.4461
-60.3189 -75.5772
-49.2117 -83.9012
-46.1516 -72.6558
-44.5071 -91.5095
-28.6841 -68.5268
-39.9516 -74.8913
-42.7661 -81.5814
-35.0219 -75.6487
-12.4192 -81.813
-27.7238 -96.1473
-37.3949 -77.2246
-24.3773 -76.9955
-26.9518 -87.8829
-35.9851 -62.5033
-17.1912 -69.1359
-25.4476 -64.422
-4.43967 -76.1537
-15.1768 94.0173
2.91969 -81.3561
-4.84754 -85.6588
-11.1723 -87.6224
16.0249 -89.9709
-4.80218 -78.7082
3.96549 -66.8752
0.628352 -68.9197
8.25527 -73.8217
10.8206 -75.1496
4.28793 -88.7642
-2.075 -87.1777
10.8722 -57.4831
14.0299 -93.01
23.2436 -83.1846
10.0377 -78.0634
26.4211 -81.9954
28.1884 -80.3908
22.3137 -71.4358
18.6496 -69.2905
21.5502 -62.2045
31.6204 -83.5239
34.8875 -67.0734
34.96 -80.2966
20.6398 -74.884
45.0519 -80.1771
48.7715 -70.196
51.7968 -68.199
52.1685 -76.6315
59.5773 -86.0743
53.2798 -79.131
72.6112 -52.1848
55.3287 -76.863
55.1115 -79.324
64.9932 -76.9682
45.5992 98.5448
39.6387 -77.5515
61.0381 -95.7057
70.6054 -68.22
64.0889 -82.2707
63.2557 -88.0511
81.5847 -76.083
82.9294 -86.0487
88.8107 -85.1705
76.7054 -71.018
79.3406 -70.941
89.2009 -71.9235
85.5647 -87.7716
90.5329 -81.0951
94.1176 -84.7381
-94.6523 -71.1596
-87.7655 -71.5323
-95.0019 98.5928
95.03 -69.5941
-94.5272 -69.9644
97.8195 -62.3868
-97.7845 -68.9795
-96.1065 -82.8329
95.4587 -66.1864
-98.6058 -87.0691
-93.7536 -76.2873
-88.2731 -79.5114
-83.2117 -87.6611
-93.7247 -74.6497
-83.6206 -89.3366
-62.6993 -82.8275
-72.646 -73.5337
-71.8133 -66.4704
-81.2523 -71.6742
-77.3786 -71.7021
-59.2583 -94.8302
-80.2383 -74.8894
-60.9232 -56.3101
-61.4037 -64.3587
-62.5755 -71.9809
-57.4482 -69.4792
-55.2042 -88.7496
-58.8704 93.0854
-49.558 -63.6267
-51.27 -69.531
-45.8886 -78.2943
-59.4765 -66.1622
-43.5738 -90.439
-54.5897 -80.8916
-48.8932 -74.0794
-34.2993 -93.6129
-31.4359 -75.2175
-42.5502 -74.4473
-24.947 -78.1378
-27.0965 -92.1134
-23.7239 -74.4122
-35.4606 -90.1724
-8.34508 -83.3193
-10.5881 -83.3863
-19.2782 -76.9223
-46.8861 -76.184
-17.098 -81.4294
-26.8806 -83.1287
-20.2336 -71.574
-29.8692 -79.7939
-12.3722 -60.9703
-20.3753 -80.0967
-3.48213 -95.4138
-18.5393 -89.8977
15.9007 -65.6269
6.39974 -60.1142
16.9942 -66.3534
28.4095 -72.5263
15.6995 -73.1082
-4.88459 -69.1945
-6.054 -65.9504
1.61774 -65.3727
8.23523 -88.536
14.4028 -80.5984
12.5338 -86.5637
5.87808 -74.5238
28.2843 -77.0748
20.5651 -70.3239
38.2866 -75.1965
15.5893 -76.9815
48.1197 -72.6412
24.5069 -80.7557
33.9389 -79.3376
52.3247 -86.957
20.3991 -73.8686
38.4162 -88.4001
37.5715 -69.8267
53.4402 -66.9097
27.0653 -78.2853
41.5926 -85.2058
48.2761 -68.4279
67.2271 -74.0468
46.5121 -80.2463
48.2037 -96.1134
70.7466 -86.0823
51.9318 -56.7682
54.114 -79.9597
70.7793 -79.8093
64.5826 -95.1511
54.038 -87.1032
72.6304 -86.3817
89.0675 -57.7854
63.6369 97.9681
60.6714 -75.3298
58.0037 -81.9285
76.4187 -76.704
-98.6744 -54.7721
94.2491 -85.7428
-91.8782 -59.5465
94.2425 -80.1985
96.9753 -78.4339
91.7251 -69.5514
94.1091 -61.0133
93.2647 -94.9097
90.277 -48.6023
-84.6528 -81.7712
-81.4341 -78.9352
-86.932 -68.4892
-72.4173 -86.1871
-88.2795 -69.5731
-85.2993 -84.4633
-91.4753 -64.3904
-74.1321 -83.76
-70.8216 -85.2208
-75.3914 -80.8775
-68.1951 -66.1984
-67.6229 -83.3136
-61.6579 -97.7581
-75.7512 -82.6754
-52.9057 -81.4029
-82.3734 -67.8074
-66.918 -91.1757
-46.0839 -61.8556
-68.4451 -73.7849
-77.3911 -76.5619
-46.4143 -69.7702
-61.3674 -77.6609
-66.2309 -74.7611
-60.0123 -79.5006
-63.6109 -71.112
-60.3454 -84.3255
-33.8757 -66.6367
-37.0035 -66.3119
-34.4885 -73.392
-49.1279 -79.6289
-47.9624 -89.6099
-32.2005 -46.6457
-24.9244 -74.5638
-30.1845 -82.2057
-28.3141 -64.1015
-28.9748 -81.8654
-45.7898 -84.7944
-36.5713 -61.3314
-52.8817 -84.6305
-3.57637 -85.0315
-28.9113 -98.0275
-24.7221 -58.6195
-49.1893 -52.1974
-44.7618 -78.6206
-20.2159 -65.5616
-19.1971 -85.5809
-3.41863 -77.8492
-0.923742 -68.9922
10.8021 -74.1487
26.1786 -66.3714
15.89 -88.1795
-21.1315 -68.3187
9.55472 -66.8533
-3.36081 -74.9432
1.6846 -67.4668
9.07229 -68.9562
30.6339 -55.0477
14.3052 -73.3085
14.8487 -75.3372
7.23707 -71.9005
30.216 -61.9135
13.8643 -70.5968
35.5498 -60.9463
25.3546 -57.2314
26.7956 -73.7916
39.7209 -56.9241
8.42478 -53.6896
46.8113 -67.3873
42.6816 -86.6432
48.7813 -90.4035
45.0392 -83.5683
29.6255 -69.407
53.0393 -95.0234
24.6531 -83.7849
55.5007 -71.3204
54.7456 -68.7114
47.9861 -78.5072
50.9244 -77.6369
57.2075 -68.9376
55.9675 -74.6692
59.39 -92.513
77.0091 -84.7523
62.305 -83.2581
49.8574 -98.7426
50.3667 -93.2694
85.3826 -72.8246
84.8595 -88.7331
67.1065 -87.2192
59.8765 -79.1124
80.9183 -80.7992
65.5217 -70.925
93.0331 -82.2001
-90.3012 -78.8361
75.5327 -80.842
94.3786 -75.8003
94.5161 -76.8618
95.9539 -72.37
-79.6206 -98.4571
-89.6339 -64.6109
-95.7282 -54.1272
93.3416 -52.9973
94.8832 -90.6266
-83.3821 -84.5538
-77.281 -54.8047
-79.0686 -76.7212
-91.6552 -83.8382
-94.8474 -81.6366
-68.4237 -80.9348
-79.468 -67.1117
-70.8201 -91.7684
-75.5392 -67.0159
-80.3942 -82.5155
-54.7021 -98.2689
-81.3312 -83.9446
-88.762 -76.1108
-80.3483 -79.7859
-81.6909 -75.302
-66.9665 -81.1463
-51.0104 -85.1196
-57.6705 -75.6626
-61.2119 -70.7843
-57.6579 -82.8439
-55.7973 -87.5503
-64.032 -76.8584
-45.7244 -89.6473
-33.1366 -84.5282
-45.0706 -62.361
-38.6772 -78.5199
-52.8844 -61.531
-38.723 -74.1555
-50.5572 -75.9594
-31.3185 -72.1643
-36.4065 -52.442
-41.0456 -53.3438
-31.7337 -65.868
-25.8256 -87.5751
-12.5911 93.3731
-40.2269 -76.1009
-20.6842 -47.5377
-29.1165 -78.7891
-30.7513 -77.9223
-30.7828 -97.2333
-22.7144 -72.7759
-10.8789 -81.3503
-8.28869 -93.8303
1.35525 -77.7715
-7.28443 -66.5907
-16.1065 -79.1065
1.23993 -74.9303
4.96165 -85.673
-16.6484 -73.7498
3.87601 -86.9575
-16.6926 -84.6959
-1.74018 -65.5085
-11.659 -69.8191
-2.00174 -79.799
21.6049 -65.8853
4.87989 -90.7518
6.97133 -89.3901
31.8474 -62.6565
12.327 -77.5663
30.8076 -68.6277
36.9569 -76.3322
10.868 -85.2427
27.0698 -71.0911
41.2785 -65.0828
26.1331 -72.92
37.8156 -60.5503
43.3728 -78.7618
26.892 -62.7195
33.8178 -68.0535
27.8121 -82.0328
63.7319 -76.8987
58.5175 -89.9659
33.0341 -72.2751
49.2568 -73.4209
58.5193 -66.1098
65.8016 -76.2033
50.2252 -74.0818
74.5247 -80.651
65.8652 -69.0582
77.4606 -75.7366
62.6848 -84.6014
67.0157 -83.0214
60.8949 -69.4942
79.7281 -56.4559
49.2865 -76.2541
84.163 -92.6106
70.5484 -89.4553
83.3997 -78.8401
73.7334 -81.4548
86.4132 -78.3558
95.9061 -49.6063
91.4686 -60.3813
86.4301 -77.0886
76.5164 -73.5669
78.4762 -54.1105
93.3718 -87.0525
96.3573 -65.095
95.2287 -67.3887
-83.7674 -61.6219
-81.6092 -65.6031
-84.8915 -64.6545
98.9673 -62.1842
-72.5489 -84.9363
-83.2269 -81.4984
96.4857 -53.1349
-85.9575 -71.2225
-90.4701 -54.4267
97.8454 -83.6343
-78.4526 -88.8025
-64.5894 -89.2991
-85.738 -86.564
-83.8688 -76.8309
-55.1235 -66.6749
-49.5919 -68.9652
-50.9837 -71.3845
-66.3336 -70.2354
-66.2438 -59.63
-67.0949 -73.9968
-58.521 -74.0873
-45.3948 -96.064
-52.1012 -65.1943
-51.8499 -81.1679
-52.866 -58.5792
-61.5691 -81.8729
-34.308 -91.0003
-46.1588 -68.5686
-47.8304 -87.4926
-35.4546 -54.0416
-38.4031 -55.422
-48.4022 -69.3948
-31.7308 -77.5154
-32.4424 -67.0066
-45.3311 -64.676
-34.7144 -79.7318
-29.3414 -60.2421
-22.9242 -82.9611
-15.0156 -87.4613
-27.9511 -75.8209
-16.7913 -71.301
-40.5481 -85.0311
-19.7475 -74.1735
-42.4554 -94.6708
-19.05 -70.8598
-7.93107 -73.4073
-0.923885 -88.8946
-10.8398 -67.7986
11.1343 -65.3483
7.48962 -80.7252
14.2814 -64.5151
-0.816018 -73.522
6.98432 -85.0252
-11.0506 -49.2064
15.9047 -64.5977
13.7326 -63.523
13.1137 -64.8721
9.59208 -72.5145
-0.674555 -67.0852
37.8458 -73.0786
5.43053 -63.3485
26.7502 -64.1992
-2.12952 -61.9071
38.5151 -78.1721
22.6018 -63.1075
53.3841 -70.4113
18.526 -64.8542
57.6674 -83.5138
45.1824 -60.1731
22.1845 -74.873
34.4945 -78.3793
42.8371 -69.5411
42.3084 -68.1584
33.2771 -70.5305
52.8905 -72.6638
59.4166 -71.0873
74.1146 -71.8812
59.6873 -82.189
73.2084 -74.903
51.7193 -80.289
83.1499 -65.2674
45.4066 -85.6798
48.3353 -55.6458
58.9674 -76.7806
56.3572 -84.2609
73.7363 -79.5143
71.694 -82.7309
55.084 -75.1593
-94.0669 -69.0132
71.8246 -62.9527
82.7008 -77.6731
-95.994 -77.8024
83.4128 -63.0065
78.2793 -74.2358
84.4185 -89.9635
-92.9916 -78.205
-92.9598 -80.8944
-92.3529 -65.0533
-88.8508 -63.4482
95.9228 -70.9739
-85.5332 -63.5565
-89.3466 -84.2126
95.1695 -60.4968
-65.0433 -63.6439
-84.7294 -59.8995
-79.5446 -63.1502
-98.112 -75.5032
-71.4146 -73.4739
-70.8334 -59.9025
98.3933 -78.4409
-61.4698 98.0263
-66.2966 -89.1059
-71.3795 -63.9201
-84.1969 -74.2223
-85.7057 -73.9934
-68.0259 -71.2888
-68.9779 -62.1135
-66.7297 -56.2229
-71.7615 -48.6683
-60.3494 -73.8488
-59.3979 -71.4629
-59.6638 -74.6845
-42.6372 -66.7464
-55.7761 -71.8501
-34.0727 -62.3672
-51.9929 -73.7834
-34.061 -70.2295
-40.7741 -77.2381
-39.3994 -42.3818
-44.9846 -68.643
-42.288 -89.976
-33.0932 -50.7907
-30.9643 -64.2503
-28.605 -65.1553
-31.3579 -37.8351
-6.5167 -60.6083
-25.5811 -61.0228
-33.2322 -90.4395
-12.0285 -66.3445
-37.8862 -79.9994
-36.9329 -78.8993
-25.0236 -66.1939
-28.6293 -74.2981
-5.8145 -77.045
-21.5913 -66.2343
-18.5263 -71.8384
-5.87574 -78.8879
-23.7242 -91.042
-5.53043 -81.91
1.56113 -71.3954
-13.9408 -66.1485
10.7263 -79.1404
-4.99542 -63.3277
-15.6291 -70.6282
11.5284 -70.7909
9.15993 -49.9636
-2.11419 -60.8118
18.5118 -52.5054
-3.77615 -68.7663
20.8981 -68.4587
10.3192 -41.2798
42.8584 -58.6213
25.4244 -71.6971
32.9815 -61.1924
7.83601 -68.2421
21.3588 -67.488
50.728 -64.6601
41.2974 -58.5353
54.4355 -70.6299
36.8515 -83.6552
56.2927 -72.1585
49.8048 -63.3635
50.6058 -66.4786
34.6289 -71.8566
58.7101 -84.1364
38.2949 -65.8213
70.6379 -58.9314
59.737 -69.4701
79.3552 -60.1271
72.9895 -80.7145
51.8806 -63.1063
68.3281 -83.2765
61.1757 -51.4199
65.3269 -79.7472
60.5829 -67.8739
68.0303 -68.1799
89.7967 -91.84
62.8668 -69.1514
63.7938 -75.5419
68.1974 -61.8977
-98.3877 -84.5891
84.8372 -80.44
88.6029 -69.449
86.2411 -71.2617
90.4788 -56.267
-97.8324 -67.0544
-91.3902 -66.9144
93.8568 -81.6058
-98.0449 -77.1594
-96.4849 -74.967
-86.9267 -63.0741
-98.9243 -74.1266
-89.4953 -79.6215
-90.187 -87.847
-91.194 -46.1403
-92.5232 -66.0609
-65.6459 -88.1459
-89.9387 -81.9129
-71.164 -71.4908
-75.655 -78.7708
-78.5129 -67.7011
-82.0479 -46.9662
-62.7513 -63.8114
-80.5738 -78.1006
-75.3255 -60.3988
-61.0642 -68.0321
-63.8957 -81.704
-51.0512 -72.8748
-54.9152 -69.4101
-66.0372 -68.4795
-39.1579 -94.5169
-64.7438 -51.1447
-41.9314 -82.3467
-56.4694 -64.9461
-55.2851 -56.8467
-45.1239 -72.9418
-73.8849 -74.9586
-26.4192 -77.8268
-40.3224 -58.596
-39.9631 -71.1226
-23.9766 -38.4804
-26.117 -55.4098
-42.8836 -57.8917
-33.7032 -48.9781
-37.4066 -62.2142
-29.8807 -63.7675
-29.4147 -69.3934
-29.8653 -75.1942
-21.8287 -59.3165
-28.9031 -66.765
-17.4646 -65.4373
-42.3513 -80.3803
-20.332 -55.1102
-22.8676 -73.7917
-8.5175 -68.1449
-1.01367 -83.965
-5.07805 95.8761
3.05069 -75.9845
-9.75246 -87.9319
2.67155 -65.1915
-13.2639 -72.9644
-19.404 -72.4527
6.87624 -38.6314
2.64422 -60.8035
6.02841 -55.0698
2.95417 -57.6823
1.43057 -57.4829
19.7309 -66.9579
-0.959533 -57.2541
9.25284 -77.0163
4.02106 -70.2681
21.4458 -60.1043
30.2565 -74.5429
47.1545 -76.2195
32.5245 -82.8758
50.0628 -69.0959
34.4132 -56.4302
50.5518 -75.9356
36.0106 -77.9235
17.3639 -75.2954
39.2567 -72.5893
45.468 -74.4646
58.084 -60.1499
62.9331 -81.6936
35.6489 -78.9448
65.0178 -69.8866
59.8575 -55.196
47.4942 -61.973
70.9382 -77.3332
54.4638 -53.3889
79.7503 -72.3738
49.4359 -78.1767
87.7468 -56.4766
68.9015 -66.8545
82.7671 -79.6156
75.1921 -58.29
86.0977 -79.666
81.9866 -80.4
79.1622 -63.2447
73.5946 -83.4663
76.4669 -59.9069
79.0946 -54.9209
71.1901 -50.7056
71.2173 -74.4509
71.6751 -68.0737
85.0609 -71.8123
-91.6688 -77.9269
90.5919 -69.2804
96.4709 -69.2
-94.7978 -75.8259
-90.2322 -62.7485
-93.8767 -80.2258
-91.9393 -73.454
-90.2768 -71.12
-87.7468 -55.8046
-98.2584 -81.8044
-86.5418 -60.3936
-76.323 -61.2586
-73.09 -69.1538
-63.6054 95.6659
-76.9399 -62.4028
-58.9136 -59.7362
-61.7757 -57.1138
-77.6472 -63.435
-65.0978 -39.6399
-76.9065 -78.0455
-60.3144 -64.5536
-60.9212 -65.4924
-73.1005 -70.6978
-63.0624 -59.8905
-45.8678 -77.0517
-48.4851 -70.7466
-43.1795 -71.2212
-35.7003 -57.5647
-28.0476 -47.5372
-44.3209 -64.4184
-50.3644 -74.8928
-63.5397 -66.9606
-33.1347 -63.0346
-39.6797 -57.7702
-36.5352 -67.2595
-50.9 -57.325
-29.5361 -46.8846
-24.5125 -54.6397