ITEM: TIMESTEP
7900
ITEM: NUMBER OF ATOMS
10000
ITEM: BOX BOUNDS pp pp pp
-5.0000000000000000e+01 5.0000000000000000e+01
-5.0000000000000000e+01 5.0000000000000000e+01
-1.0000000000000000e+01 1.0000000000000000e+01
ITEM: ATOMS x y
49.9686 -49.6381
-48.9938 -49.554
-47.987 -49.6695
-46.6932 -49.5869
-45.6874 -49.7471
-44.5884 -49.8735
-43.559 -49.9478
-42.565 49.7976
-41.6048 -49.5983
-40.7049 49.8967
-39.6934 -49.6717
-38.7989 49.8301
-37.8912 -49.6852
-37.0253 49.7632
-35.9957 -49.7104
-35.1162 -49.2226
-34.2555 -49.7449
-33.3415 -49.2654
-32.1506 49.8577
-31.0408 49.762
-29.959 49.7065
-29.4751 -49.3853
-28.2942 -49.4704
-27.8846 49.586
-25.2238 -49.5417
-24.6313 49.649
-23.0293 49.4744
-22.7701 -49.5565
-21.9185 49.5413
-20.863 49.6481
-19.8601 49.8743
-18.8475 49.8741
-17.8553 -49.9238
-16.6316 -49.8902
-15.6298 -49.7356
-14.084 -49.7863
-12.9726 -49.6808
-12.2088 -49.034
-11.248 -49.8057
-10.2976 49.6399
-9.41076 -49.8268
-8.60942 49.5482
-7.60997 49.9657
-6.78603 49.3433
-5.83665 49.9589
-4.92109 -49.6004
-3.94575 49.6981
-3.01656 -49.8532
-1.99037 49.525
-0.196997 -49.4115
0.937363 49.9831
1.81949 -49.4651
2.88648 -49.8682
3.66658 -49.2217
4.60315 -49.6326
5.5028 -49.0485
6.5257 -49.537
7.54214 -49.9813
9.03428 -49.6379
9.85969 49.7811
10.918 -49.7563
11.7106 49.6337
12.6255 -49.8638
13.4325 49.4306
14.4987 -49.8652
15.3166 49.4713
16.2994 49.9967
17.1185 49.4056
18.0785 49.7647
19.0771 -49.7445
19.888 49.6633
20.7627 49.1279
21.6767 49.5888
22.6073 -49.9605
23.4975 49.3556
24.37 49.9612
25.3533 49.5435
26.4728 -49.751
27.4472 49.9001
28.9524 -49.926
29.9895 -49.8901
31.0375 -49.906
32.1098 -49.9668
33.1729 49.9975
34.2015 49.9948
34.6718 49.1193
35.7216 49.1659
36.7662 49.3012
37.8852 49.2781
38.8906 49.2458
39.906 49.2229
40.6684 49.8872
41.5509 49.403
42.4941 49.9456
43.4978 49.4794
44.3261 -49.9457
45.2623 -49.4518
46.3657 -49.902
47.8671 -49.6889
48.9019 -49.6721
-49.5579 -48.7244
-48.4087 -48.7224
-47.3962 -48.8393
-46.0855 -48.6418
-45.0479 -48.9356
-45.217 -47.9315
-43.9763 -49.0413
-43.1814 -48.4231
-42.5369 -49.1858
-40.6495 -49.0733
-39.6699 -48.6449
-38.8091 -49.1446
-37.851 -48.6833
-36.8902 -49.2203
-36.0189 -48.6661
-35.0797 -48.1694
-34.237 -48.7246
-33.3216 -48.2312
-32.2709 -48.6803
-31.5081 -49.3277
-30.4844 -49.3497
-28.9307 -48.5092
-27.2919 -49.5471
-26.2263 -49.5621
-25.6867 -48.6626
-24.5626 -48.7809
-23.7935 -49.7947
-23.4861 -48.8395
-21.5259 -49.5012
-20.4793 -49.3379
-19.477 -49.1699
-18.4691 -49.1265
-17.433 -48.9591
-16.2803 -48.8797
-15.2803 -48.7868
-14.2794 -48.7887
-13.2506 -48.5826
-11.7791 -47.9514
-11.1128 -48.7055
-10.3382 -49.3641
-9.19485 -48.7883
-8.44109 -49.4681
-7.53375 -48.8736
-6.75758 -49.5094
-5.74693 -49.0216
-4.74931 -48.6095
-3.93276 -49.1956
-3.01116 -48.7311
-2.03621 -49.3294
-1.06412 -48.7904
0.768333 -48.9884
1.62361 -48.4644
2.59916 -48.8175
3.47544 -48.2014
4.47719 -48.6398
6.28469 -48.3081
7.2098 -48.8038
8.1604 -49.1476
9.08798 -48.6231
9.93211 -49.1617
10.8884 -48.7157
11.8086 -49.2937
12.669 -48.7782
13.5862 -49.3332
14.4964 -48.8675
15.429 -49.5067
16.4267 -49.0087
17.2404 -49.5924
18.172 -49.0826
19.1818 -48.6276
19.9855 -49.2351
20.7739 -49.8727
21.7634 -49.3912
22.6997 -48.936
23.5076 -49.5287
24.3797 -49.0243
25.3305 -49.4254
27.2408 -49.0598
28.3022 -49.1621
29.4828 -48.9776
30.5202 -48.9575
31.5725 -49.0606
32.576 -49.0688
33.6863 -49.1235
34.7389 -48.9643
35.2613 -49.9152
36.2507 -49.7989
37.3358 -49.8108
38.4214 -49.8316
38.8141 -48.8876
39.4642 -49.7258
40.59 -49.069
41.5241 -49.553
42.4299 -48.9914
43.3188 -49.4537
44.2837 -48.94
46.3268 -48.8672
47.3442 -48.7306
48.351 -48.7213
49.4197 -48.7977
49.986 -47.8225
-48.96 -47.8627
-47.9299 -47.7938
-46.8473 -47.9975
-46.0864 -47.326
-45.148 -46.9369
-44.1957 -47.8645
-43.2495 -47.4157
-42.3314 -47.847
-41.5334 -48.5919
-40.5443 -48.0672
-38.7292 -48.1397
-37.8369 -47.6581
-36.921 -48.1733
-36.0171 -47.6264
-35.137 -47.1413
-34.1906 -47.6791
-33.3004 -47.1798
-32.442 -47.6877
-31.0276 -48.3916
-29.9907 -48.4168
-29.4343 -47.5476
-27.8154 -48.4652
-26.801 -48.6752
-26.1857 -47.7372
-25.0429 -47.8063
-23.9719 -47.8522
-22.9457 -47.9614
-22.2011 -48.7056
-21.1846 -48.4953
-20.1111 -48.3336
-19.0575 -48.2463
-18.0374 -48.0813
-16.9988 -47.8948
-15.9814 -47.8364
-14.9552 -47.7014
-13.9678 -47.5649
-12.9441 -47.6278
-10.7847 -47.5476
-10.1192 -48.3826
-9.4598 -47.6185
-8.37238 -48.2091
-7.42057 -47.8825
-6.59939 -48.4743
-5.65626 -47.8526
-4.6012 -47.5027
-3.82843 -48.1449
-2.81177 -47.5956
-1.99074 -48.1931
-0.860574 -47.7797
0.130452 -48.2013
1.13666 -47.5206
2.41756 -47.8211
4.35523 -47.566
5.33624 -47.9812
6.12484 -47.3215
7.1714 -47.7053
8.07591 -48.1463
9.10548 -47.6176
9.97743 -48.1686
10.9213 -47.7207
11.8165 -48.2385
12.7074 -47.7513
13.5922 -48.2737
14.6436 -47.8046
15.4693 -48.3902
16.4162 -48.0029
17.3238 -48.5415
18.2636 -48.0591
19.2044 -47.6089
20.089 -48.1978
20.9499 -48.7999
21.8599 -48.345
22.7673 -47.8338
23.5887 -48.408
24.672 -48.0416
26.0506 -48.6842
26.9216 -48.018
27.945 -48.2101
28.9465 -48.1205
30.2449 -47.9936
31.2548 -48.0902
32.2571 -48.1025
33.2738 -48.122
34.2477 -47.7439
35.7615 -48.874
36.7879 -48.9348
37.1891 -48.0004
37.8116 -48.8835
38.8083 -47.8907
39.7171 -48.4521
40.6666 -47.8746
41.5576 -48.3732
42.4568 -47.8425
43.2965 -48.4305
44.3577 -47.9426
45.3826 -48.4482
46.6296 -47.8963
47.6976 -47.7719
48.9467 -47.8913
49.4243 -46.9779
-49.5792 -46.9188
-48.5803 -46.8735
-47.3298 -46.7688
-46.2215 -46.3408
-45.2882 -45.93
-44.1489 -46.8379
-43.2526 -46.3963
-42.2948 -46.8279
-41.4006 -47.4192
-40.4616 -46.942
-39.5945 -47.5501
-38.6947 -47.1182
-36.918 -47.1181
-35.996 -46.5612
-35.0959 -46.0588
-34.2103 -46.6707
-33.2808 -46.1502
-31.4832 -47.4019
-30.4344 -47.4945
-30.0348 -46.5763
-28.846 -46.6878
-28.3845 -47.5784
-27.2361 -47.6166
-26.6433 -46.7731
-25.5879 -46.8449
-24.5285 -46.9247
-23.4272 -47.0078
-22.2688 -47.2119
-21.2473 -47.4884
-19.8479 -47.3042
-18.7446 -47.2867
-17.6666 -47.1452
-16.667 -46.9577
-15.5263 -46.8582
-14.5127 -46.7345
-13.4415 -46.7091
-12.4194 -46.7315
-11.3156 -46.6655
-10.2833 -46.6744
-9.24704 -46.6137
-8.40524 -47.152
-7.3987 -46.7665
-6.54246 -47.3288
-5.46516 -46.8098
-4.52458 -46.4243
-3.68347 -47.1056
-2.72856 -46.5497
-1.80236 -47.1802
-0.906163 -46.6465
0.0719659 -47.1084
2.13734 -46.8501
3.28715 -47.2043
4.24206 -46.5352
5.18667 -46.9222
5.98536 -46.2995
7.11107 -46.6702
8.03745 -47.0477
8.91435 -46.5655
10.0931 -47.1393
10.9639 -46.6469
11.9072 -47.1581
12.791 -46.6632
13.6567 -47.2741
14.6897 -46.8042
15.5771 -47.3519
16.5409 -46.9705
17.3931 -47.5267
18.2898 -47.0464
19.2338 -46.6084
20.1048 -47.1574
21.0216 -47.7964
21.8983 -47.2642
22.8291 -46.792
23.6529 -47.374
24.5957 -47.0239
25.7681 -47.6588
26.5891 -47.0261
27.5917 -47.2554
28.6015 -47.1626
29.6917 -47.1092
30.7983 -47.0593
31.8432 -47.0919
33.144 -47.1204
34.452 -46.6833
35.308 -47.9638
36.2383 -47.5109
37.0895 -46.698
38.0118 -47.2851
38.9734 -46.8
39.7648 -47.418
40.6893 -46.7855
41.5928 -47.3324
42.5756 -46.8423
43.4548 -47.3496
44.3231 -46.8515
45.2816 -47.4032
46.1614 -46.9132
47.19 -46.867
48.2883 -46.9122
49.9202 -45.9767
-49.0614 -45.992
-48.0074 -45.9968
-47.0317 -45.7486
-46.0961 -45.3266
-45.1286 -44.9021
-44.1871 -45.7451
-43.2431 -45.2736
-42.2704 -45.7976
-41.3403 -46.3773
-40.3762 -45.915
-39.5627 -46.5086
-38.6614 -46.0773
-37.7695 -46.5665
-36.8521 -46.0227
-35.9636 -45.5385
-34.1876 -45.6319
-32.5519 -45.4409
-32.1968 -46.4119
-31.0373 -46.4208
-30.5003 -45.5494
-29.3306 -45.8116
-28.2433 -45.8169
-27.7982 -46.7642
-27.2264 -45.9455
-26.045 -45.8608
-24.927 -45.9403
-23.8749 -46.034
-22.7364 -46.1168
-21.6728 -46.3282
-20.586 -46.577
-19.6052 -46.3269
-18.3801 -46.2865
-17.361 -46.1725
-16.1992 -46.058
-15.2073 -45.8727
-14.0299 -45.8403
-12.9365 -45.8085
-11.9189 -45.8331
-10.9062 -45.6758
-9.83326 -45.7077
-8.49804 -45.8013
-7.41358 -45.6957
-6.53348 -46.2323
-5.50392 -45.6348
-4.462 -45.424
-3.50916 -45.9295
-2.5952 -45.4821
-1.76189 -46.138
0.141566 -46.0323
1.0815 -46.3775
2.05151 -45.7741
3.13243 -46.1707
3.95813 -45.5693
4.96332 -45.7693
6.00352 -45.1909
6.98734 -45.446
7.96468 -46.0357
8.83733 -45.4454
9.86159 -46.0949
10.9042 -45.6319
11.8403 -46.1496
12.9187 -45.6709
13.7567 -46.21
14.7377 -45.7715
15.6118 -46.3196
16.5395 -45.8841
17.4115 -46.4911
18.3386 -46.002
19.2406 -45.5735
20.1668 -46.1428
21.0399 -46.7427
21.9393 -46.2292
22.9148 -45.7784
23.7745 -46.3748
24.7947 -45.962
25.616 -46.6289
26.6367 -45.9866
27.9791 -46.2861
29.1321 -46.2758
30.1327 -46.1658
31.3109 -46.1973
32.5589 -46.2672
33.5767 -46.1539
35.1215 -45.8921
35.4498 -46.889
36.2025 -46.1331
37.0681 -45.6392
38.0082 -46.2219
38.907 -45.6537
39.8333 -46.2295
40.7761 -45.7057
41.627 -46.3002
42.5643 -45.776
43.4551 -46.3093
44.3488 -45.792
45.2804 -46.3598
46.5555 -45.9857
47.8313 -45.9994
48.8459 -46.0888
49.4527 -45.0724
-49.5437 -45.0159
-48.6617 -44.5336
-47.6524 -44.8464
-46.4601 -44.3517
-45.4884 -43.9495
-44.1245 -44.7003
-43.2081 -44.2763
-42.2635 -44.7855
-41.3822 -45.3177
-40.3482 -44.8866
-39.4775 -45.473
-38.6184 -44.8953
-37.7141 -45.5167
-36.8487 -44.9188
-35.8722 -44.4298
-34.9934 -45.0487
-34.0454 -44.6257
-33.0397 -44.5359
-31.5336 -45.5197
-30.9777 -44.6195
-29.8466 -44.7016
-28.7727 -44.9694
-27.7078 -44.9353
-26.6657 -45.0669
-25.3853 -45.0553
-24.3094 -45.117
-23.274 -45.1832
-22.111 -45.2932
-21.1118 -45.3581
-20.0927 -45.3809
-19.0036 -45.4472
-17.945 -45.2685
-16.8308 -45.2838
-15.8043 -45.072
-14.5968 -44.9546
-13.555 -44.9519
-12.5491 -44.8097
-11.4878 -44.8647
-10.4372 -44.8001
-9.4349 -44.7924
-8.3304 -44.6837
-7.32056 -44.6139
-6.42219 -45.1554
-5.41947 -44.6384
-4.42921 -44.3934
-3.47612 -44.8699
-1.67915 -45.0629
-0.800321 -45.5937
0.134894 -44.9236
1.07057 -45.3034
1.90369 -44.7386
2.98622 -45.168
4.00547 -44.563
5.10691 -44.7102
5.9669 -44.1609
7.11211 -44.3835
7.97041 -44.8999
9.09589 -44.4701
9.88768 -45.0898
10.9388 -44.6295
11.9523 -45.1193
12.8443 -44.5974
13.8094 -45.2187
14.7088 -44.7509
15.7073 -45.296
16.5836 -44.7827
17.4528 -45.3701
18.3621 -44.8009
19.376 -44.5144
20.2011 -45.0957
21.1297 -45.6464
22.0396 -45.1714
23.0253 -44.781
23.9144 -45.3024
24.8722 -44.9102
25.7561 -45.4393
26.688 -44.9357
27.6007 -45.3681
28.6025 -45.4056
29.7129 -45.2177
30.726 -45.3222
32.0487 -45.4
33.1254 -45.0564
34.1685 -45.3231
35.0675 -44.8448
36.0844 -45.1405
37.0575 -44.6186
37.9575 -45.1875
38.8964 -44.6185
39.7665 -45.1322
40.7644 -44.6436
41.6909 -45.1862
42.6407 -44.7502
43.4694 -45.3117
44.4715 -44.7942
45.3709 -45.349
46.2657 -44.8964
47.2337 -45.1957
48.3616 -45.0331
49.7536 -44.0957
-49.2975 -43.766
-48.3397 -43.3024
-47.3236 -43.8219
-46.3453 -43.3231
-45.2126 -42.9626
-44.4195 -43.7019
-43.2533 -43.2749
-42.3135 -43.7809
-41.3232 -44.3037
-40.3703 -43.8835
-39.4808 -44.3887
-38.6435 -43.8086
-37.7465 -44.4128
-36.8019 -43.8994
-35.7764 -43.4176
-34.9225 -44.0505
-33.8162 -43.4715
-32.4367 -43.6332
-32.003 -44.6077
-31.4306 -43.6472
-30.3796 -43.7938
-29.2538 -43.8991
-28.2459 -44.0477
-27.2343 -44.0401
-25.9575 -44.2259
-24.9081 -44.1785
-23.8424 -44.2154
-22.671 -44.3865
-21.6488 -44.3845
-20.6489 -44.4526
-19.5681 -44.4985
-18.5132 -44.4234
-17.4505 -44.3924
-16.4012 -44.2643
-15.3215 -44.1418
-14.2723 -44.0112
-13.0838 -43.8819
-12.0619 -43.872
-11.0536 -43.8729
-9.92011 -43.8817
-8.88213 -43.84
-7.82203 -43.7507
-6.38949 -44.132
-5.12598 -43.5986
-3.54123 -43.8672
-2.51862 -44.4713
-1.62407 -43.9927
-0.68613 -44.3542
0.09756 -43.6974
1.02519 -44.1957
1.90911 -43.734
2.96293 -44.1399
3.97393 -43.5338
5.00963 -43.654
6.2873 -43.2008
7.29992 -43.3982
8.2398 -43.8705
9.22356 -43.4639
10.0986 -44.0562
11.0209 -43.6003
11.9243 -44.0388
12.965 -43.5325
13.8546 -44.2148
14.6753 -43.6405
15.5411 -44.1891
16.5261 -43.7404
17.4883 -44.318
18.3792 -43.7556
19.4049 -43.4078
20.2989 -44.0936
21.2041 -44.6213
22.1266 -44.1736
23.1872 -43.7391
24.0417 -44.3016
24.9734 -43.8613
25.8215 -44.4344
26.7691 -43.9214
28.0932 -44.4686
29.1073 -44.3222
30.4875 -44.3033
31.4959 -44.5483
32.5415 -44.1411
33.3926 -43.5219
34.1633 -44.3104
35.1195 -43.737
36.0605 -44.1437
37.1781 -43.5634
37.9832 -44.1786
39.0001 -43.5362
39.8411 -44.1315
40.7699 -43.58
41.7219 -44.1593
42.6427 -43.7216
43.5375 -44.2857
44.3865 -43.7059
45.4072 -44.3479
46.2975 -43.8931
47.5836 -44.2588
48.723 -44.0471
49.9703 -43.0661
-49.1078 -42.6635
-48.1671 -42.2909
-47.2348 -42.8165
-46.0958 -42.3416
-45.1537 -41.8918
-44.2321 -42.6211
-43.2157 -42.2433
-42.2702 -42.7518
-41.3496 -43.2785
-40.4259 -42.7768
-39.4903 -43.2465
-38.5851 -42.7321
-37.6587 -43.3879
-36.6326 -42.8948
-35.712 -42.3738
-34.8661 -42.9295
-33.9633 -42.4745
-32.9054 -42.6145
-31.9069 -42.7236
-30.7416 -42.8524
-29.749 -42.9554
-28.7251 -43.0167
-27.7312 -43.1517
-26.6109 -43.2589
-25.4819 -43.3358
-24.3269 -43.3084
-23.1626 -43.4766
-22.1479 -43.4815
-21.0917 -43.4731
-20.0504 -43.5869
-19.0374 -43.5634
-18.022 -43.4841
-17.0011 -43.4679
-15.9508 -43.3502
-14.9238 -43.2288
-13.7622 -43.0211
-12.6298 -42.987
-11.6244 -42.9584
-10.4768 -43.0285
-9.48847 -42.8835
-8.38633 -42.9016
-7.09291 -42.979
-6.07181 -42.929
-5.03042 -42.5473
-4.02033 -42.9648
-2.6309 -43.3958
-1.74178 -42.8946
-0.836931 -43.3239
0.0690111 -42.698
1.03266 -43.1799
2.00266 -42.6426
2.92188 -43.1428
3.71219 -42.5121
5.4187 -42.6758
6.36559 -42.1898
7.37708 -42.2916
8.24799 -42.8562
9.25012 -42.4432
10.1518 -43.0163
11.1342 -42.5247
12.0486 -43.0285
12.9881 -42.4827
13.8326 -43.0236
14.7554 -42.5957
15.6424 -43.1648
16.5306 -42.6303
17.4848 -43.1132
18.4211 -42.6985
19.4722 -42.3394
20.328 -42.9434
21.2814 -43.6194
22.165 -43.0722
23.0986 -42.674
24.059 -43.257
24.9856 -42.8617
25.8827 -43.3598
26.8454 -42.901
27.671 -43.4638
28.7775 -43.2598
29.7674 -43.5122
30.697 -43.1411
31.6606 -43.5641
32.5193 -42.9985
34.3326 -43.0804
35.3257 -42.7084
36.2848 -43.0987
37.2221 -42.4365
38.0761 -42.9831
38.9963 -42.4892
39.8758 -43.0547
40.7551 -42.5003
41.7018 -43.1297
42.5971 -42.6319
43.5266 -43.1962
44.3863 -42.683
45.3331 -43.3386
46.3018 -42.8907
47.3593 -43.2634
48.3288 -43.0166
49.1232 -42.399
-49.8748 -41.9791
-48.8833 -41.5966
-47.0846 -41.8117
-46.1165 -41.2904
-45.1077 -40.8501
-44.1255 -41.5911
-43.1821 -41.1951
-42.2081 -41.7055
-41.2809 -42.2291
-40.3805 -41.6402
-39.4798 -42.2123
-38.503 -41.7073
-37.5865 -42.381
-36.6937 -41.8546
-35.7951 -41.3806
-34.816 -41.8929
-33.8618 -40.7529
-33.3513 -41.6634
-32.253 -41.7896
-31.1579 -41.809
-30.1808 -42.0261
-29.1362 -42.0472
-28.0453 -42.1903
-27.0005 -42.3355
-25.9492 -42.448
-24.9303 -42.4114
-23.6919 -42.5171
-22.6721 -42.5135
-21.5883 -42.5848
-20.5857 -42.5861
-19.5613 -42.6411
-18.5599 -42.581
-17.3946 -42.5201
-16.398 -42.3798
-15.3648 -42.2918
-14.3261 -42.1989
-13.2448 -42.1563
-12.2218 -41.9976
-11.2074 -42.0465
-9.97119 -41.9964
-8.91177 -42.0302
-7.84033 -42.0541
-6.66014 -42.0625
-4.91242 -41.5308
-3.99203 -41.9592
-3.07497 -42.4868
-2.17539 -41.997
-0.883006 -42.3176
-0.0865696 -41.7109
0.975121 -42.1775
1.86269 -41.5817
2.8291 -41.9414
3.73385 -41.5172
4.60584 -42.0717
5.52302 -41.6038
6.43601 -41.1707
8.31535 -41.818
9.24542 -41.4306
10.1993 -41.7782
11.178 -41.4776
12.1162 -41.8946
13.0538 -41.4578
13.8854 -42.0181
14.7741 -41.5429
15.6748 -42.1144
16.6448 -41.611
17.5061 -42.1172
18.5686 -41.6757
19.5244 -41.2225
20.4292 -41.8787
21.2363 -42.4918
22.2252 -42.0327
23.2642 -41.6059
24.0456 -42.223
25.0073 -41.8403
25.8595 -42.3626
26.9496 -41.8104
27.7792 -42.4434
29.6716 -42.497
29.7988 -41.4412
30.61 -42.0707
31.5553 -42.5574
33.4786 -42.4528
34.4201 -42.015
35.2221 -41.4047
36.1515 -42.0583
37.1665 -41.3989
38.0744 -41.9142
38.9593 -41.4387
39.8888 -41.9612
40.8379 -41.4674
41.7729 -42.0328
42.6765 -41.5481
43.5281 -42.1325
44.5336 -41.695
45.4254 -42.2901
46.4231 -41.7524
47.3162 -42.2577
48.2583 -41.8092
49.1727 -41.3502
-49.8852 -40.9611
-47.9425 -41.2572
-47.1124 -40.7038
-46.0321 -40.2944
-45.0327 -39.7892
-44.1517 -40.4908
-43.1224 -40.0311
-42.2401 -40.6253
-41.3104 -41.2182
-40.3781 -40.6322
-39.4071 -41.2142
-38.497 -40.6901
-37.5439 -41.3141
-36.6596 -40.7742
-35.8042 -40.2511
-34.9191 -40.8331
-33.2896 -39.921
-32.7155 -40.8051
-31.7074 -40.9071
-30.649 -40.929
-29.5712 -41.0664
-28.5446 -41.1358
-27.4242 -41.3224
-26.4221 -41.5193
-25.3997 -41.4582
-24.1925 -41.6038
-23.1823 -41.6041
-22.1299 -41.6665
-21.0726 -41.7029
-20.0286 -41.6574
-19.025 -41.6936
-18.0209 -41.7418
-17.0564 -41.4675
-16.0089 -41.4059
-14.9702 -41.3534
-13.8135 -41.306
-12.7953 -41.1783
-11.7226 -41.1305
-10.6493 -41.2149
-9.52953 -41.0997
-8.3286 -41.1645
-7.29111 -41.214
-6.1982 -41.1505
-4.93792 -40.5082
-3.96609 -40.9378
-3.01793 -41.4683
-2.14631 -40.9743
-1.08765 -41.3339
-0.120287 -40.7013
0.941785 -41.1718
1.79819 -40.5866
2.78928 -40.9412
3.68971 -40.4615
4.67703 -41.0587
5.57923 -40.5639
7.07137 -40.3509
7.46999 -41.2699
9.2517 -40.3152
10.1478 -40.7782
11.1496 -40.3982
12.1317 -40.8339
13.0255 -40.338
13.9598 -40.9305
14.8665 -40.4495
15.7373 -41.0052
16.8105 -40.4985
17.6057 -41.1292
18.6029 -40.6498
19.6108 -40.2114
20.4506 -40.8683
21.3967 -41.4747
22.3717 -41.0237
23.3335 -40.6068
24.1942 -41.1846
25.141 -40.7776
26.0211 -41.337
27.012 -40.789
27.851 -41.3482
28.7061 -41.995
29.8107 -40.3781
30.7147 -40.8469
31.5783 -41.4584
32.5188 -41.9714
33.3823 -41.4392
35.3434 -40.4079
36.2564 -40.8927
37.2088 -40.4002
38.0978 -40.8965
39.0442 -40.4187
39.9283 -40.9412
40.9485 -40.4315
41.825 -41.0264
42.768 -40.5407
43.7146 -41.1282
44.6333 -40.5681
45.5027 -41.2288
46.4388 -40.7262
47.313 -41.2405
48.2672 -40.7836
49.2686 -40.3364
-49.7637 -39.9535
-48.9344 -40.5889
-47.9578 -40.1045
-46.9437 -39.7062
-45.953 -39.276
-44.9956 -38.7943
-44.0563 -39.4544
-42.1516 -39.5909
-41.29 -40.183
-40.3175 -39.6367
-39.4537 -40.2144
-38.6039 -39.6915
-37.5678 -40.3048
-36.6814 -39.7279
-35.777 -39.1161
-34.5836 -39.8519
-33.8503 -39.0922
-32.6773 -39.1238
-32.1279 -39.9621
-31.1291 -40.0131
-30.0444 -40.0217
-29.0115 -40.1281
-27.9059 -40.3693
-26.8431 -40.4631
-25.7989 -40.5474
-24.7537 -40.6901
-23.6741 -40.7199
-22.6507 -40.734
-21.601 -40.8232
-20.5878 -40.8247
-19.4947 -40.8152
-18.4814 -40.8527
-17.5751 -40.4302
-16.5708 -40.511
-15.5416 -40.5168
-14.4458 -40.4893
-13.4565 -40.3194
-12.4554 -40.2361
-11.394 -40.1833
-10.2321 -40.3035
-9.01848 -40.241
-8.02345 -40.0878
-7.00217 -40.2176
-5.91484 -40.1854
-4.02494 -39.9079
-3.04933 -40.4671
-2.08331 -39.8293
-1.07958 -40.331
-0.26048 -39.7149
0.703533 -40.1038
1.58162 -39.5595
2.59909 -39.9518
3.38605 -39.2472
4.58234 -39.979
5.39405 -39.2819
6.4397 -39.4575
8.2548 -40.6274
8.80808 -39.4158
10.0256 -39.5998
11.1154 -39.2699
11.9972 -39.8096
13.1882 -39.3333
14.0174 -39.8955
14.9566 -39.356
15.8933 -39.9357
16.8 -39.4901
17.7046 -40.0507
18.6951 -39.6481
19.6342 -39.202
20.579 -39.8317
21.4855 -40.4376
22.366 -39.9442
23.4002 -39.5824
24.3265 -40.1435
25.2504 -39.6165
26.1594 -40.1953
27.1374 -39.735
28.0482 -40.2805
28.8898 -40.9692
29.8824 -39.2535
30.8074 -39.8282
31.6962 -40.3381
32.5149 -40.9077
34.3184 -40.9831
35.2636 -39.3753
36.2203 -39.9003
37.2802 -39.3771
38.1868 -39.9014
39.0839 -39.3657
39.9691 -39.8997
40.91 -39.3862
41.8334 -39.9604
42.7675 -39.5002
43.6658 -40.0655
44.799 -39.521
45.5748 -40.1947
46.5087 -39.7148
47.3906 -40.2271
48.4417 -39.7593
49.3923 -39.3383
-49.6318 -38.9167
-48.8444 -39.55
-47.7564 -39.0726
-46.8093 -38.6768
-45.907 -38.225
-44.0291 -38.3237
-43.104 -39.0252
-42.2003 -38.4871
-41.2948 -39.0742
-40.3423 -38.6363
-39.4419 -39.1432
-38.5501 -38.6913
-37.6506 -39.1476
-36.7834 -38.6254
-35.6823 -38.0868
-34.845 -38.7119
-33.8607 -38.0267
-32.8355 -38.1128
-31.6609 -39.0494
-30.5574 -39.1244
-29.4975 -39.1552
-28.3832 -39.3108
-27.2384 -39.5463
-26.2414 -39.6275
-25.1745 -39.7223
-24.1541 -39.8335
-23.138 -39.8172
-22.0984 -39.872
-21.0641 -39.9161
-20.0277 -39.9698
-18.9636 -39.9518
-18.2001 -39.2713
-17.1958 -39.4554
-16.1721 -39.354
-15.1041 -39.5114
-14.0715 -39.5034
-13.0547 -39.367
-11.9553 -39.3246
-10.8707 -39.3356
-9.60047 -39.3569
-8.58009 -39.2536
-7.36719 -39.2897
-6.11634 -39.0007
-5.05255 -39.5148
-4.24983 -38.8362
-3.13842 -39.4484
-2.20382 -38.8337
-1.21255 -39.3389
-0.388238 -38.6705
0.586022 -39.1101
1.42573 -38.5651
2.4179 -38.9296
4.42165 -38.9055
5.22935 -38.0761
6.18423 -38.4589
7.15067 -38.7487
7.7917 -39.6283
9.29225 -38.5475
10.2934 -38.5929
11.3552 -38.2668
12.2851 -38.7419
13.2276 -38.3345
14.1544 -38.7696
15.035 -38.3
15.8542 -38.9148
16.9455 -38.3749
17.7326 -39.0361
18.8417 -38.5473
19.784 -38.1079
20.5641 -38.7393
21.4919 -39.3225
22.4604 -38.8391
23.4064 -38.4572
24.2476 -39.0319
25.3037 -38.6162
26.2795 -39.1595
27.2104 -38.676
28.0422 -39.2421
28.9601 -39.6862
30.8255 -38.7997
31.6777 -39.3309
32.6147 -39.888
33.4692 -40.434
34.4278 -39.9783
35.4227 -38.3648
36.391 -38.8502
37.2858 -38.2622
38.2501 -38.8237
39.0944 -38.2717
39.9759 -38.8749
40.9201 -38.3339
41.8131 -38.9418
42.8199 -38.5023
43.6793 -39.0192
44.6952 -38.4876
45.6663 -39.0272
46.6196 -38.6108
47.569 -39.2354
48.4864 -38.7548
49.4177 -38.3361
-49.5682 -37.9046
-48.6166 -38.5145
-47.7487 -37.9941
-46.7981 -37.5856
-45.9014 -37.1382
-44.9347 -37.7603
-43.0903 -37.9189
-42.1083 -37.4772
-41.2204 -38.0716
-40.3442 -37.5122
-39.4222 -37.9881
-38.4888 -37.5585
-37.6692 -38.1461
-36.674 -37.6212
-35.6641 -37.0756
-34.7477 -37.5616
-33.7737 -37.0152
-32.4512 -37.1398
-31.8123 -38.0062
-30.7579 -38.0387
-29.7268 -38.1409
-28.738 -38.3374
-27.6593 -38.6267
-26.5534 -38.674
-24.9021 -38.7582
-23.8011 -38.8437
-22.5361 -38.9573
-22.162 -38.014
-21.5347 -38.9679
-20.5207 -38.9453
-19.4816 -39.0243
-18.8418 -38.2418
-17.8145 -38.3424
-16.7119 -38.3232
-15.6257 -38.4699
-14.6109 -38.4189
-13.5591 -38.49
-12.4815 -38.461
-11.4139 -38.4156
-10.3194 -38.488
-9.25533 -38.4196
-7.97303 -38.339
-6.9032 -38.3674
-5.36158 -38.2119
-4.43646 -37.8155
-3.19269 -38.422
-2.30483 -37.8378
-1.31215 -38.2588
-0.514663 -37.5831
0.452167 -38.0374
1.3596 -37.4839
2.28381 -37.8712
3.33868 -38.2537
4.19362 -37.7118
5.97222 -37.4003
7.0314 -37.7077
8.16294 -38.6241
9.27186 -37.5432
10.3663 -37.4273
11.4478 -37.1911
12.338 -37.6518
13.2968 -37.2971
14.2446 -37.6448
15.278 -37.1921
16.0427 -37.8503
16.875 -37.2632
17.9013 -38.0462
18.895 -37.3689
19.8658 -37.0491
20.6828 -37.6567
21.4637 -38.2943
22.5002 -37.8123
23.5614 -37.4499
24.4281 -38.0355
25.331 -37.6061
26.306 -38.1036
27.2031 -37.6069
28.0521 -38.1437
29.078 -38.668
29.9934 -38.2378
31.6714 -38.1744
32.5603 -38.748
33.4767 -39.2785
34.3809 -38.832
35.3999 -37.2109
36.2977 -37.8304
37.2589 -37.2479
38.1678 -37.7769
39.1911 -37.2169
40.0253 -37.8311
41.0181 -37.3066
41.9047 -37.9044
42.873 -37.481
43.7633 -38.0115
44.7174 -37.4222
45.6361 -38.0174
46.7178 -37.5764
47.6177 -38.2202
48.4842 -37.708
49.4039 -37.3011
-49.5472 -36.8358
-48.7131 -37.3981
-47.7816 -36.9657
-46.8179 -36.5234
-44.9574 -36.7575
-44.0254 -37.3028
-43.077 -36.8493
-42.154 -36.4182
-41.2197 -36.9655
-40.3351 -36.5064
-39.423 -36.9749
-38.458 -36.542
-37.5253 -37.068
-36.5479 -36.574
-35.6515 -36.0707
-34.7218 -36.511
-33.8447 -35.9787
-32.8234 -36.0632
-31.7924 -36.2626
-31.2795 -37.1262
-30.2516 -37.1603
-29.0599 -37.3926
-28.0476 -37.5943
-27.0159 -37.7788
-25.7477 -38.0694
-24.3255 -37.9443
-23.211 -38.0407
-22.6443 -37.0976
-21.017 -38.0231
-20.4107 -37.2282
-19.9529 -38.1167
-19.3694 -37.3042
-18.2439 -37.4311
-17.1962 -37.3644
-16.0675 -37.4586
-15.0407 -37.4911
-14.0427 -37.5388
-12.9653 -37.582
-11.9658 -37.561
-10.9098 -37.5078
-9.79055 -37.5611
-8.63386 -37.5827
-7.3934 -37.4783
-6.27565 -37.373
-5.13374 -37.0787
-3.38608 -37.4447
-2.47068 -36.8076
-1.47598 -37.1805
-0.664578 -36.5411
0.311578 -36.9885
1.13589 -36.4021
2.11481 -36.8342
3.17066 -37.226
4.03812 -36.6691
5.13497 -36.8511
6.4856 -36.5266
8.10725 -37.6134
8.64534 -36.6124
9.70202 -36.5631
10.7791 -36.4398
11.8074 -36.2594
12.8719 -36.3479
14.0223 -36.5094
14.9827 -36.2334
16.131 -36.3487
17.1247 -36.2746
17.8988 -37.0391
18.2897 -36.0295
19.275 -36.2234
20.7026 -36.5045
21.6318 -37.2773
22.5365 -36.7981
23.5862 -36.4423
24.4971 -37.0364
25.4126 -36.5521
26.3129 -37.1046
27.2569 -36.5921
28.204 -37.0781
29.0841 -37.6042
30.0126 -37.0506
30.8705 -37.5626
32.6695 -37.694
33.5576 -38.2224
34.5323 -37.8219
35.3998 -36.1551
36.3256 -36.7968
37.4462 -36.1948
38.3085 -36.7298
39.2527 -36.1151
40.1812 -36.5721
41.1308 -36.2543
41.9455 -36.8831
42.9412 -36.4249
43.8193 -36.9508
44.8266 -36.4239
45.8163 -37.0153
46.6454 -36.4279
47.6389 -37.1692
48.5806 -36.6267
49.6039 -36.238
-49.4956 -35.7826
-48.622 -36.3701
-47.683 -35.928
-45.7906 -36.1364
-44.8632 -35.5267
-44.0321 -36.2405
-43.0183 -35.8373
-42.1087 -35.3859
-41.2245 -35.968
-40.2896 -35.4946
-39.3674 -35.9569
-38.5091 -35.3941
-37.5656 -36.0699
-36.6271 -35.5567
-35.7565 -35.0304
-34.7387 -35.5109
-33.4265 -35.0288
-32.1089 -35.2499
-31.1133 -35.34
-30.7206 -36.2714
-29.7065 -36.2766
-28.422 -36.602
-27.3924 -36.8245
-26.1952 -36.9937
-25.0193 -37.0203
-23.7593 -37.0884
-23.3136 -36.0484
-22.2152 -36.1928
-21.6281 -37.1179
-21.099 -36.2257
-19.9208 -36.3256
-18.8941 -36.3792
-17.8197 -36.497
-16.6268 -36.5071
-15.6201 -36.5249
-14.591 -36.5958
-13.522 -36.635
-12.4578 -36.6452
-11.4553 -36.6567
-10.311 -36.6554
-9.21675 -36.7335
-8.1347 -36.7145
-6.92331 -36.5801
-5.89952 -36.4359
-4.64869 -36.199
-3.45703 -36.3862
-2.6929 -35.7341
-1.60397 -36.1453
-0.799291 -35.5342
0.221337 -35.9924
1.98253 -35.8286
3.09563 -36.1547
3.97578 -35.6678
4.96074 -35.8397
5.95638 -35.6807
7.02784 -35.6524
7.60226 -36.6811
8.11219 -35.6285
9.1435 -35.7073
10.2303 -35.4415
11.2319 -35.3786
12.3477 -35.4114
13.4784 -35.5032
14.4684 -35.3524
15.543 -35.3288
16.5832 -35.3991
17.6728 -35.2345
18.9016 -35.2304
19.9311 -35.4485
20.9921 -35.2952
21.6969 -36.2133
22.6121 -35.7621
23.5742 -35.4058
24.5517 -35.968
25.4133 -35.4379
26.4144 -36.0292
27.275 -35.5153
28.1813 -36.0166
29.0936 -36.5175
30.9499 -36.4952
31.7773 -37.1328
32.7098 -36.6021
33.5867 -37.1962
34.5061 -36.7663
35.7115 -35.1579
36.5765 -35.6935
37.443 -35.1818
38.3584 -35.6176
39.3107 -35.0429
40.2406 -35.468
41.2596 -35.1512
42.0636 -35.8884
42.9273 -35.3431
43.7935 -35.893
44.8071 -35.4274
45.717 -35.9337
46.7601 -35.3105
47.6705 -36.1327
48.6441 -35.6176
49.7033 -35.1516
-49.3786 -34.7613
-48.5759 -35.3691
-47.621 -34.9169
-46.7132 -35.5172
-45.7912 -35.0259
-43.8976 -35.2163
-42.9549 -34.8349
-42.0689 -34.3153
-41.2073 -34.9456
-40.2532 -34.3941
-39.3782 -34.864
-38.4914 -34.3992
-37.5586 -35.0514
-36.6714 -34.5427
-35.7438 -34.0064
-34.6882 -34.5101
-33.7735 -34.0716
-32.6723 -34.3633
-31.4663 -34.3936
-30.3775 -34.6235
-29.2708 -34.7964
-28.8793 -35.7175
-27.8067 -35.7981
-26.5898 -36.0303
-25.5317 -35.9977
-24.4323 -36.1361
-23.8407 -35.2016
-22.7182 -35.1927
-21.61 -35.2907
-20.4764 -35.4354
-19.4279 -35.454
-18.3784 -35.4934
-17.2484 -35.6132
-16.1201 -35.598
-15.0321 -35.6518
-14.0144 -35.5726
-12.9737 -35.7181
-11.9525 -35.7846
-10.8964 -35.8277
-9.77875 -35.8065
-8.65697 -35.7716
-7.6564 -35.8124
-6.52187 -35.6031
-5.46152 -35.531
-4.64678 -34.9383
-3.64837 -35.3679
-2.89243 -34.707
-1.87869 -35.1254
-1.02513 -34.5377
0.0469985 -34.9759
1.14212 -35.1813
2.10675 -34.8384
3.26073 -34.8673
4.42616 -34.7529
5.45534 -34.8052
6.4545 -34.8046
7.45948 -34.7128
8.50795 -34.6754
9.57048 -34.6719
10.674 -34.5347
11.7509 -34.5178
12.8673 -34.5296
13.8806 -34.4515
14.9947 -34.4825
16.0685 -34.4693
17.0929 -34.4045
18.2852 -34.3961
19.2833 -34.2336
20.2677 -34.4081
21.2716 -34.0965
21.9209 -34.8984
22.6126 -34.1743
23.5934 -34.4106
24.5235 -34.9264
25.4298 -34.4371
26.3054 -34.9801
28.2058 -34.9832
29.2018 -35.4383
30.1025 -35.8867
31.0251 -35.409
31.8391 -36.0106
32.7653 -35.5627
33.6698 -36.1225
34.4824 -35.5301
35.7488 -34.1214
36.6188 -34.6236
37.4657 -34.0686
38.4348 -34.543
39.3543 -34.0114
40.3507 -34.4762
41.2779 -33.969
42.1664 -34.6317
43.1138 -34.3199
43.9731 -34.8216
44.9454 -34.4282
45.8448 -34.8876
46.7268 -34.3082
47.8568 -34.9979
48.7736 -34.5883
49.7006 -34.1226
-49.3086 -33.6997
-48.44 -34.3445
-47.5041 -33.7754
-46.652 -34.4038
-45.6341 -33.7668
-44.9037 -34.491
-43.8248 -34.1976
-42.5437 -33.4275
-41.164 -33.8486
-40.265 -33.3816
-39.37 -33.8671
-38.4151 -33.3875
-37.5528 -33.9983
-36.658 -33.475
-35.7747 -33.0076
-34.831 -33.4345
-33.8666 -33.0756
-32.895 -33.3038
-31.7939 -33.4187
-30.7437 -33.4752
-29.6928 -33.8712
-28.6123 -33.9049
-28.2356 -34.8871
-27.1499 -34.9394
-26.0588 -35.1225
-24.8477 -35.1663
-24.3416 -34.2458
-23.2921 -34.3087
-22.1673 -34.3581
-20.9232 -34.4777
-19.9272 -34.4579
-18.8325 -34.4726
-17.7594 -34.6829
-16.7236 -34.6646
-15.5325 -34.7434
-14.4443 -34.6731
-13.3962 -34.771
-12.3882 -34.8193
-11.2994 -34.853
-10.2607 -34.929
-9.25761 -34.8758
-8.25509 -34.7629
-7.26311 -34.8496
-5.55416 -34.5163
-4.75551 -33.9225
-3.82915 -34.3487
-2.94279 -33.6462
-1.94008 -34.0814
-1.04818 -33.4534
-0.194142 -33.9742
0.799762 -34.1758
1.75978 -33.8981
2.82141 -33.9501
3.86126 -33.8925
4.98767 -33.9082
6.02059 -33.882
7.02088 -33.8179
8.03531 -33.7686
9.071 -33.7194
10.1252 -33.6719
11.158 -33.6221
12.1975 -33.6285
13.3016 -33.617
14.356 -33.5666
15.4215 -33.5772
16.485 -33.5034
17.6135 -33.5223
18.6301 -33.3631
19.6427 -33.2785
20.6497 -33.2637
21.6666 -33.13
22.715 -33.1437
23.7523 -33.2757
24.5293 -33.8981
26.4098 -33.9903
27.2945 -34.4959
28.2947 -33.9523
29.2513 -34.3968
30.1869 -34.7947
31.0728 -34.2676
31.9798 -34.8407
32.8687 -34.3322
33.6151 -35.0083
34.7349 -34.5499
35.6759 -33.0631
36.6258 -33.5235
37.5322 -33.0453
38.4289 -33.542
39.499 -33.0011
40.4113 -33.4713
41.3056 -32.9078
42.2032 -33.5758
43.1522 -33.1507
43.9668 -33.7585
44.9109 -33.2934
45.8742 -33.7492
47.0056 -33.325
47.8 -33.9362
48.7346 -33.5847
49.7814 -33.1029
-49.2044 -32.6352
-48.3383 -33.1957
-47.4014 -32.7273
-46.5787 -33.2931
-45.3443 -32.8072
-44.551 -33.5128
-43.4432 -32.8075
-42.5438 -32.3756
-41.2966 -32.8295
-40.3922 -32.2669
-39.3713 -32.8469
-38.5121 -32.2522
-37.5281 -32.8633
-36.6732 -32.3483
-35.6613 -31.9415
-34.4796 -32.2823
-33.3152 -32.2386
-32.2264 -32.4646
-31.2002 -32.5814
-30.1313 -32.6139
-29.1581 -33.0287
-28.026 -32.9801
-27.5689 -34.0045