ITEM: TIMESTEP
891250
ITEM: NUMBER OF ATOMS
10000
ITEM: BOX BOUNDS pp pp pp
-5.7205700000000000e+01 5.7205700000000000e+01
-5.7205700000000000e+01 5.7205700000000000e+01
-1.1441100000000000e+01 1.1441100000000000e+01
ITEM: ATOMS x y
-43.3517 -46.1587
55.5194 7.1726
-37.8771 -15.1571
-41.2634 -8.11499
-14.1667 19.5558
57.2438 -31.2683
3.96429 -45.3454
-32.2662 -41.1561
51.9716 35.1997
-27.9346 39.2991
-24.4339 -54.2974
-33.6828 25.1755
-11.863 -56.276
-32.6836 -44.767
-4.39815 -51.15
6.54305 56.0195
-46.2978 -13.6904
4.78909 32.0242
-23.4388 49.8953
-27.3144 34.253
49.0755 55.1145
4.20862 -19.5951
18.1638 56.9285
4.85152 -41.9245
13.4707 32.3119
11.0876 -49.9824
-13.9896 -46.4203
-31.0156 -51.2776
-36.7698 24.3989
0.176152 55.3153
-15.8203 -52.421
28.0117 28.0201
17.8062 14.8903
37.6155 14.4688
2.20018 55.4607
1.08008 51.0042
19.7468 48.7281
-1.87307 41.1747
18.6095 44.4433
28.994 -31.368
-3.10223 -50.7559
-2.12894 29.5288
4.95988 -16.5119
-21.1592 24.9023
46.417 -39.0358
27.9135 52.8997
26.4335 49.8625
26.3243 53.7574
3.29614 -13.2685
45.6451 49.8157
-11.201 55.6465
-24.0524 -47.2348
34.9435 -54.3574
-5.57361 -4.90858
-16.9645 -28.4579
23.7104 -10.2127
34.3526 51.2035
30.6971 4.51034
16.8904 5.53447
2.4559 -3.94322
17.2465 56.4888
41.4382 33.2167
34.4948 -49.5132
-39.8611 -34.6503
35.4489 38.1346
18.2465 48.2704
35.7996 46.3002
32.4419 -37.7689
-25.1871 -24.3473
51.7372 48.5906
55.5894 -45.7751
34.8883 29.5351
-52.5215 -44.7511
-48.0293 -41.9695
41.08 -45.3211
-37.288 -36.3475
-28.0994 49.9273
36.6058 37.0578
-25.1291 38.8405
-37.9518 54.1252
-52.8961 18.097
56.7234 55.7302
-12.3164 35.2153
-23.1513 -25.0375
-38.5034 34.8284
-56.37 53.1412
-31.0343 -8.12321
44.8751 50.6645
-24.4208 32.9
37.0158 43.9633
-53.5309 37.6332
-1.50904 -54.2794
-52.9032 8.46777
-11.3374 -51.3043
-25.0913 -49.4223
-28.8685 33.5626
-46.8225 52.578
42.0289 -32.1251
-9.9003 -29.1547
-5.67437 -52.9654
-31.1516 -31.3268
-52.6604 -11.1117
-28.1937 -16.0115
49.9011 37.2004
-19.5409 45.715
-51.0517 -28.5022
27.0959 38.1502
-7.36803 -37.6262
-46.7745 -55.873
44.8282 -26.1563
34.6148 -32.2849
-27.0919 -24.9087
-11.4204 37.65
2.49001 49.0123
26.2546 -35.4435
6.84783 34.4257
-5.05282 -11.3394
44.7533 -44.0087
3.11814 40.4761
24.6872 20.6561
-30.6149 -32.3898
10.9698 -39.4361
-2.15632 34.26
13.4915 -55.678
6.00194 -52.2992
-2.87204 35.0041
-34.7344 42.0871
-30.6282 42.8264
27.2539 -55.9343
9.38933 -47.5035
-6.81012 -24.5664
6.04243 -43.1322
-0.317653 22.9017
4.25771 -46.5956
11.2174 -52.304
-17.5695 39.9476
19.1007 -19.9025
13.9975 22.8016
5.30117 -38.6164
-6.5274 55.6339
-11.7485 29.3214
39.3251 50.0997
17.5175 -20.8016
19.4658 32.8205
-2.5728 36.4826
19.0424 -32.119
5.29595 -19.3544
29.3076 25.1031
-2.82192 41.6038
9.71467 9.3829
22.6541 29.6351
13.3142 27.8497
10.4776 -13.2859
-38.6126 1.63669
8.80003 -35.9128
33.663 -53.3108
21.0724 -44.1544
4.12365 52.1479
-42.2297 25.2695
20.1789 -42.582
9.25693 34.5309
41.3911 -50.2162
23.8716 -37.4668
49.4415 -1.45802
39.3912 41.0384
17.7589 43.2789
25.5268 38.804
17.3688 30.5647
47.5145 26.0531
43.3761 37.614
52.2118 31.3699
45.3036 -39.1534
-15.5118 -45.683
49.7148 54.0993
35.9522 44.0253
-37.5248 5.59808
50.4075 50.1773
-41.2424 10.2403
57.0332 -48.2098
57.0875 -52.941
-55.3493 -29.482
38.5347 -2.7598
-45.561 -27.2003
40.203 -37.7475
-40.3245 52.1068
-18.8369 -37.9525
51.8333 32.4672
36.4162 38.5431
-20.5444 -38.845
-44.4064 54.382
45.5507 52.6216
20.4904 27.0465
-50.7508 48.9509
55.3664 -40.1584
-42.8213 -35.9564
34.7965 45.0032
-23.6606 24.4625
-10.2175 22.8633
44.7645 -56.16
-55.4013 56.4567
-15.1937 52.8666
-51.2198 -37.3798
-34.4522 43.1308
-26.6026 -25.7831
-25.9228 -30.0375
-20.907 50.8506
-20.6636 -12.5063
-22.7427 -47.0792
-3.36511 -57.1516
36.2996 5.79255
9.05727 -49.8728
-40.6364 -26.81
0.665224 -48.0773
-5.36104 -48.3957
-4.44652 -27.9694
-19.414 50.3423
-6.83065 -42.5788
-4.15436 -41.5322
15.1012 -42.8633
-15.7587 31.5051
-47.2394 -8.35913
8.78134 38.4322
-21.3438 -45.5353
6.54821 -44.1292
0.973366 -54.0893
-33.988 -54.0301
-40.7773 -53.4435
11.8025 -28.0499
9.86132 54.457
25.6658 46.6806
-30.2076 -49.1833
-20.167 -29.6617
23.5945 50.5456
-41.0038 -56.5824
9.452 44.7539
32.1738 -32.9068
27.7148 -36.043
-26.1687 29.7984
6.24615 18.3441
18.2704 32.5472
32.2811 -49.4496
4.71376 49.1307
-14.7205 8.03592
27.388 17.7623
-2.86699 54.3129
-10.2952 50.4423
52.8829 42.3575
7.49338 46.7079
22.1954 37.5273
45.7474 -29.7104
18.6601 55.5383
-38.9064 40.5461
40.2339 50.5139
-16.8777 56.341
37.6788 23.1743
36.4254 -43.448
14.3316 23.8437
-6.64423 8.93611
39.4111 -32.0494
40.266 51.7224
48.797 -21.1467
1.43317 37.4982
52.4444 43.8462
-3.6259 -23.0912
9.39809 0.32648
50.9777 -53.6039
39.8803 19.9787
17.5946 -2.27201
-5.91566 32.8383
30.9009 43.3295
26.1772 35.006
-38.729 -36.5254
-44.1853 50.4164
-50.2787 -46.7258
38.5139 33.9595
30.2774 -49.748
-14.9061 -31.5547
-36.1302 -39.2256
44.5862 17.9229
-56.0138 -39.2198
35.4475 -36.0618
-43.5873 44.5922
-36.4782 44.2171
-55.5197 -54.8575
-37.2579 -55.8024
-33.7881 38.9115
-5.9609 37.0882
30.7476 39.5145
16.0358 39.4698
-56.5131 55.582
22.9517 45.8906
-26.7806 57.0208
-24.2335 -1.65211
42.7695 -55.476
-21.21 -25.2823
16.1695 46.3671
-38.2292 51.4802
-26.8679 -42.3063
-29.616 -29.0833
37.1653 27.8957
-41.113 55.3094
5.76164 48.7609
-36.6381 -18.2534
8.70641 53.4581
-40.1627 -15.3307
-54.2845 -52.0344
42.3504 4.72703
-5.75657 11.5323
-33.0993 -50.5903
-31.9432 28.3412
-2.37986 -57.0273
-30.2338 -24.0792
0.658083 24.9107
-20.2474 -18.9361
12.817 -12.4771
-24.7388 -56.5337
-13.147 -12.7054
-37.735 -47.0315
-2.18395 -50.1532
-27.1468 50.6696
10.2161 10.3555
0.382412 -53.1924
-28.6227 56.2386
-3.42303 22.4246
-11.2153 45.0925
9.27303 30.6875
-45.0084 -5.63476
-25.7296 49.2308
-24.0237 -3.47928
14.6957 -47.3889
-2.43459 23.1137
14.2548 -28.1636
37.5466 -50.5653
-33.084 24.3037
-35.7602 36.7857
6.81093 -34.0014
-36.7964 -46.481
18.0312 -52.8956
11.2 -21.1159
-10.146 26.2468
10.652 -44.1117
-54.8863 -39.027
27.1393 -32.894
-3.62861 15.1296
56.3247 37.4442
25.2888 31.1822
-37.0803 -26.243
2.30928 37.9879
32.5488 28.1579
42.6504 -43.2847
-14.4115 24.3664
2.49813 -32.588
-13.6815 -51.8502
-10.3649 -3.69266
-3.24684 -55.9736
25.0751 -55.4475
-6.9389 -40.9668
17.6737 -48.2192
57.0331 -19.3283
-8.85799 -39.568
38.024 29.6437
-7.20123 -19.6572
22.6439 34.2504
10.7488 29.3733
20.1251 37.5739
-56.8312 27.5522
-51.7545 -1.32089
21.808 20.8588
27.0249 54.735
48.4934 42.9111
54.8305 51.1785
41.6038 49.9145
-43.3408 -30.529
45.9247 8.77714
16.4428 27.1777
-42.2749 27.3889
27.8218 29.1018
43.8804 -55.1821
47.1078 47.2339
40.8519 36.8754
-51.024 41.8093
42.223 -1.40122
24.7475 -16.92
37.0805 35.1554
-20.7857 -54.8517
36.7364 -8.96317
-8.69048 18.5516
46.6848 55.2003
-46.3346 55.3735
-52.243 -50.4841
46.6176 27.7141
55.8359 47.9177
48.968 6.81326
-15.2209 55.1725
-28.4234 32.3532
30.7145 -14.4993
-54.5618 50.8888
-3.77342 -55.0751
-35.5651 41.2346
-31.9467 -14.9036
36.1581 -10.7702
-56.442 -51.1569
-30.0981 -20.6723
50.3494 -52.442
-13.7288 -53.101
-25.4162 6.97955
-29.9183 -38.668
-30.9596 40.512
-28.8786 -13.1154
-1.40267 -48.3197
19.6444 20.2996
-33.2909 -52.2223
9.31982 45.7809
-51.6203 -12.0045
52.8061 -37.4778
-32.214 52.2594
-35.9969 -24.4213
26.6188 -46.0221
-5.52681 42.9916
10.3798 -7.05684
-29.3488 -1.36538
-6.32207 56.6377
31.4052 -35.4176
14.7196 38.4278
-27.9561 44.9846
9.01676 8.59492
-18.7842 -52.5675
0.383761 43.6476
36.0965 -16.693
-33.4897 -40.7124
-9.82728 8.57373
33.702 -56.8006
33.824 -50.3171
9.61563 -19.2501
-7.58634 -28.5412
-35.7071 55.1582
-11.9945 -40.3703
32.3928 25.537
3.28727 55.0493
5.42895 -32.3709
2.42206 51.0496
11.0474 -25.3099
-36.871 1.24815
9.86314 -21.2857
14.4371 42.2516
-4.88237 -50.2737
20.7387 20.5398
1.06875 -56.9108
28.6953 -47.3523
15.8553 26.2991
43.5004 52.1649
32.157 -42.6569
30.1906 -32.4981
22.4724 20.0903
8.33623 2.14376
27.7238 37.259
47.9122 31.1069
-11.5448 -35.5989
10.7063 56.0443
-15.9998 42.5948
16.0219 37.1371
21.029 43.8664
52.7829 49.9137
30.3493 27.672
32.0073 24.5486
19.984 -43.8344
33.6926 -8.67241
29.9976 25.8787
-31.8395 -43.9159
19.3027 49.9685
-24.4448 49.4759
16.3483 47.3512
24.4049 35.7957
45.4982 -42.4324
47.283 53.7046
-52.3584 -19.9811
-42.7911 56.5828
30.5713 33.8571
-13.851 -30.787
-43.4728 52.3687
38.4929 42.2104
53.7247 48.4002
-28.5836 1.3924
-51.6089 -51.291
35.0076 23.3347
53.4608 43.2572
-50.3967 -15.7512
-37.9511 52.6754
-31.494 44.7337
-49.5387 -53.101
53.8092 -48.5734
34.6763 39.9946
47.8151 50.4635
-21.0266 32.2742
-29.3974 6.15238
-56.3926 49.928
-43.5614 -50.2467
47.7926 43.6445
29.1137 52.4732
-13.7801 7.71814
37.5868 36.6091
-54.5435 -18.7313
-46.7894 -51.6241
-10.5634 15.0312
-22.9682 -26.8288
-32.1204 -21.1372
43.7373 -51.3467
21.5369 -19.2847
-55.6723 26.4866
45.2256 -17.5893
-19.6777 -32.4936
22.1325 -29.8472
-9.9361 -41.4459
-38.4852 2.75776
-32.2583 -23.2384
11.0019 48.4614
20.75 -48.9602
-6.24452 -39.6409
-11.0087 30.3094
-11.0103 46.6466
3.42777 -50.9787
3.86314 -53.316
49.9037 -44.8474
-24.1255 -17.0288
36.5098 -2.44616
-18.6556 -53.5902
-11.3559 -31.5407
-4.57374 53.3459
-21.9989 -23.0164
-8.76185 45.729
54.129 26.8433
31.0599 -1.81011
-18.3037 -46.5782
4.95704 -56.3484
-1.21226 -15.0686
29.9654 50.4084
42.3216 -56.7885
17.6176 -39.1235
5.48705 45.8869
-8.74197 39.4489
49.0005 -35.309
8.94326 -51.8385
54.7388 -3.77693
13.7923 -29.109
3.3297 57.1107
-7.86284 38.9079
1.858 42.2398
39.2422 -45.386
30.7643 37.1819
-7.24318 -52.1314
-21.3242 35.8033
-11.766 -52.258
4.9475 -53.1362
34.9315 -44.8711
0.404878 -45.2649
17.1374 -53.4182
24.2035 22.4707
14.4401 45.3538
36.8599 55.0738
-55.2809 24.2886
6.40589 47.3011
34.4021 18.2481
-2.89903 -44.3491
41.2323 19.4514
-26.3181 -49.5759
20.5091 55.563
6.06284 53.7507
17.6366 46.2531
26.6149 41.9966
28.8265 53.4539
56.9981 -38.7953
42.8545 35.2875
-40.1895 -16.4047
46.084 10.103
19.3328 35.408
24.3876 -51.9917
-31.7485 -34.6453
51.7004 54.9984
46.2216 0.52302
25.2315 4.94306
49.9536 26.6424
-37.2272 48.8196
47.2094 -57.1131
12.6822 49.2301
40.0399 43.2844
-20.7572 -23.987
-34.2202 -34.6677
-33.7145 11.7435
-54.3119 -45.3398
23.0512 44.0278
-51.5387 54.7545
-50.4377 32.5316
40.7211 39.3509
-52.9754 -51.3819
-44.4018 41.6973
-26.5353 55.9974
-37.1524 -51.6604
29.7456 44.969
-35.6797 4.42028
-14.7836 31.7127
-21.2531 -51.6676
-8.45206 -36.4278
-6.43378 -35.839
-21.4641 53.7747
-12.6628 -24.9337
-27.4437 -22.6311
-20.6248 -49.1026
3.0145 -9.44157
-41.6117 -10.4265
-49.6889 -23.876
-19.075 -39.8967
3.08163 -44.8468
-5.54108 -25.0879
-11.4867 -13.3947
-19.5858 -44.9356
-55.3728 40.9234
6.67414 -50.115
-33.615 29.9974
1.21618 -52.2356
22.4139 57.1954
-2.05735 -47.2433
-20.2749 48.6222
-6.77769 -53.2177
-20.1869 19.1794
-5.25088 -57.096
12.1835 -48.579
-1.21727 34.8348
-33.0496 -55.7732
3.57803 -43.1777
53.2346 34.7382
15.0923 56.0668
-5.93121 -50.6189
-28.6389 21.3187
11.9479 -31.8119
-45.0641 49.2418
36.3622 -52.2302
38.8693 25.9526
17.7059 33.9236
-45.5353 -43.2687
-8.22808 55.8225
-42.8223 37.6526
-29.9754 -18.7571
-2.66437 -14.9302
36.9056 -42.5419
-15.7864 -17.3863
50.6752 -38.7418
-13.7988 3.80909
-2.87636 -43.2298
33.6691 -51.299
4.95933 -40.5321
18.0947 36.6168
38.7099 -48.716
24.9816 47.7818
-0.677558 -38.2726
-25.3109 23.064
4.96625 11.8184
12.6603 -55.0622
41.5361 -24.6549
15.1577 24.5638
31.8122 -0.45397
24.8073 27.7738
22.5868 51.0484
30.1631 -54.9061
56.7888 -26.7105
22.7399 15.1203
25.8357 15.6434
30.3305 23.0126
41.6304 -47.7696
30.1769 31.8744
-3.3799 -18.181
-44.0523 -38.8517
-2.97723 -49.2691
41.2061 55.8629
-56.4445 -54.3477
36.9066 -36.0229
31.1162 51.0038
11.7496 -35.3177
-51.9264 40.6304
31.8357 8.7862
30.5549 8.56521
33.7037 37.2076
-28.4837 -32.0295
-40.8668 -41.5782
-34.3077 -23.8556
-33.1015 -36.5491
-40.9705 -32.1233
-40.1919 48.3798
-35.5808 -38.0867
-34.0411 -46.3593
-1.92623 35.56
-29.0352 -56.9189
41.8549 -52.3577
-43.1709 54.255
-43.0486 47.8244
-18.664 -43.1746
-34.9831 -42.3946
47.6914 -56.2275
-35.2686 53.5138
-22.2011 -45.017
-35.6293 47.8698
-45.2838 -40.4678
-54.7424 8.94168
-28.7867 -38.3306
-36.0929 -48.4399
-33.026 -29.7369
-25.8752 -37.0197
-21.0529 -3.54666
55.5355 -19.2144
40.4047 33.2562
-23.688 -38.9274
16.6538 54.2848
-16.2406 55.4135
0.512605 -49.4171
44.4462 47.2021
7.66746 -40.583
-13.586 -41.5067
6.69242 -32.7694
-0.601621 -45.8133
-15.3661 -50.6447
-5.25888 40.1202
1.74916 40.6764
14.6602 46.4445
-32.2192 -3.45649
9.08978 48.1828
-30.7858 -22.7384
20.5945 53.8537
-9.58992 -32.6323
1.87605 -44.7579
51.6964 42.8749
-5.34914 -46.256
36.739 -34.7573
32.1341 32.4567
8.05857 -35.1047
-30.0996 37.809
6.95771 -51.1177
-25.1439 48.3179
27.1296 -40.0345
24.2102 -56.2975
3.01645 -52.7529
-36.4304 -41.0614
24.1332 -36.3403
-24.6497 24.2119
9.89569 52.3654
27.9641 34.0348
34.8172 -34.3977
-24.6911 -38.7791
11.2369 -54.8053
54.3913 -29.2309
15.3693 -46.5502
-25.6665 -50.3718
25.1936 37.2109
42.1793 -42.097
34.1767 55.6727
12.5208 -30.9178
-54.9597 20.9222
4.14035 40.5443
10.3095 -46.2709
16.4394 41.6093
8.96992 -4.57891
-54.8235 -49.9036
-9.41046 -48.6634
-28.9574 -40.8491
30.5695 46.0697
14.3324 48.2924
12.4756 1.42435
11.4626 50.857
22.7393 -24.1821
-36.9017 -43.1387
-53.7077 -0.0480235
30.9039 -54.1675
-39.8783 -21.6903
17.723 4.52012
40.549 49.4689
13.0633 -50.7912
-31.3748 -27.1059
-50.2333 44.8968
-48.4931 47.6599
11.736 25.6149
26.1747 -56.3158
-36.7846 -54.833
37.0568 -54.3154
-31.8516 -38.0575
28.6553 29.845
45.2253 53.5745
24.136 37.0311
-53.9479 18.1134
46.2439 13.1444
49.3569 57.1467
44.8824 -48.1592
29.8579 -46.8716
38.5558 -33.9313
33.9774 39.0257
51.4382 56.1714
-12.0273 23.93
45.5354 48.7524
-46.4214 44.0146
-39.8376 -56.6143
-51.131 50.3436
-30.4685 50.9257
-51.0371 -7.83312
-36.6178 33.3949
-6.17083 -29.9772
-39.676 56.3113
55.9362 -22.395
0.587786 -9.53125
38.8202 -1.53705
-18.5437 -18.3626
-10.9049 -54.3196
-11.0363 23.4357
-21.4713 -35.6238
6.44246 -54.6124
9.33084 -44.342
-34.8423 0.0994966
3.16154 47.0388
-43.5097 31.2157
2.5924 50.0329
-33.0736 -53.2179
-18.2234 -19.9733
0.372706 -37.7556
2.76217 -30.9909
-32.9426 -39.7038
-8.47131 -19.4101
-8.21289 -34.3852
6.08101 41.0563
6.85395 39.0737
21.4951 44.8358
-33.1278 45.0275
-27.3624 -56.2328
1.20826 49.1056
7.44409 45.3652
-29.63 43.7662
-19.9323 -16.1235
20.6317 49.2639
11.495 -29.0919
9.55702 -53.9124
40.0913 -30.3967
-10.4805 54.8609
-1.33249 43.5927
-0.59688 -53.7618
12.0214 -2.21421
31.6169 18.0407
-14.863 35.5475
-23.6632 -34.2816
6.81046 -37.264
-17.8759 -11.8945
15.8706 -44.4296
38.2124 -31.0277
-5.27656 52.4241
39.4911 -36.8355
5.06077 -34.3383
-25.4477 -38.0755
36.1605 -6.4126
24.6055 49.8507
7.06814 -53.5596
7.43757 56.5144
21.3739 -53.6363
-27.9089 -18.553
22.4925 44.912
42.2518 26.7473
6.50523 46.1762
40.7927 -27.8648
41.977 21.368
21.5562 40.2005
-53.1082 56.017
20.105 -46.8431
16.6285 -28.7446
21.8712 -46.941
-19.8752 -23.4206
18.8502 38.6932
28.9569 46.1872
37.6808 -55.1112
54.5966 34.9104
12.1378 22.6428
26.9472 26.5231
49.3125 -47.891
17.7476 22.6544
48.3855 -25.3536
27.519 39.9779
53.8417 49.7102
36.0511 32.6124
29.8841 20.9791
-34.6728 21.2954
37.0001 23.9567
-51.612 -39.9294
32.3085 43.6877
-28.4743 -51.903
-32.8511 -38.3358
-22.5931 -43.9827
-17.3034 41.0574
-47.0285 -41.8948
29.8628 32.9231
52.4947 53.2153
-36.009 -43.586
-37.3806 -49.1275
-44.4569 -53.3625
49.6414 -26.5202
-55.8351 -32.7503
47.9813 6.66336
44.5262 49.2516
52.5551 7.95155
22.1496 -3.90084
-48.5272 -13.8749
43.3047 -45.3208
-56.2327 11.5553
31.6947 23.0175
-7.19064 -32.7125
-48.685 -44.939
54.8057 -39.3364
-31.184 48.1671
-25.1335 -47.6644
-24.8645 -31.477
-21.8064 46.2768
-44.815 56.3563
-14.4619 49.9916
11.6199 -40.4105
-24.0141 -6.72292
20.5866 -54.8594
-9.35683 56.7653
13.1162 23.7436
10.5781 -47.3259
23.0104 -36.5667
-52.3908 9.64885
22.5252 -48.0131
5.31395 56.4544
-10.7198 -34.4387
14.654 -40.2698
-41.2575 42.3414
-50.3281 2.15135
-5.28797 56.2277
-31.1539 37.3908
13.9223 -41.0485
14.7997 -55.075
-9.10586 -42.0222
-1.79232 40.0094
-9.0922 -40.8471
14.845 -44.317
-9.05792 -29.9692
17.5715 -26.3872
8.29282 36.2153
7.99366 -48.3497
22.9068 -20.4757
21.1685 -56.8137
11.5765 -37.058
43.521 31.1394
-40.6978 54.2284
9.00351 -33.4897
-49.6908 -38.7628
36.947 42.9149
17.1604 -40.7993
2.74397 52.0902
7.12101 -52.3759
-24.6666 27.1464
41.5305 -42.9003
20.383 -27.6657
17.8277 31.5957
26.8482 52.898
-16.6742 33.2038
43.6397 -7.6467
20.6313 15.2613
3.54623 -56.3252
40.9889 9.04309
-26.2722 -24.1246
29.5572 -29.6179
10.4388 -28.6683
1.74659 46.1574
15.8823 31.0495
8.20561 50.2666
43.1369 5.43762
52.9848 -27.1337
30.4355 -21.7762
26.9003 45.2899
-49.2061 -8.81697
26.4296 13.8516
39.3086 38.147
16.7503 10.5234
-48.6214 38.0848
-42.059 36.6188
55.0033 -46.7562
-17.7762 36.5095
-34.7877 -28.6454
21.5346 55.9858
-39.7666 -52.36
-48.1069 -51.2943
-16.3986 -54.3202
46.4444 24.8947
24.6293 28.9966
53.7179 -37.0623
42.0802 -35.2625
-53.6597 -18.1021
-50.1656 -50.2513
-19.5829 -49.3361
-22.3713 -14.5958
-42.5773 -39.6918
-34.6651 -45.472
-26.1083 -16.1716
55.3262 -57.0926
-42.9919 -33.8145
-43.6462 -3.57442
-47.4267 9.72461
-50.0421 11.1065
-5.11406 -16.5856
-6.06731 -56.4819
-19.4404 -35.8225
-16.6855 -39.8475
-27.5075 -32.6156
-52.9865 -43.3655
46.1061 45.0089
44.3417 4.89349
-32.6807 -25.7912
7.43964 -49.3126
25.2797 -46.9044
-13.0044 40.5831
6.01867 -47.3898
-14.8222 -23.5923
-9.69701 37.2972
-22.8718 -6.5645
4.31099 -37.7381
47.2365 -38.3854
-2.12989 -25.7793
17.9711 -25.4614
18.3166 -27.5417
4.32769 56.9396
5.944 -28.0935
-25.2874 43.0646
29.0073 -46.1134
7.34265 -56.579
12.8915 54.0061
-17.8559 -29.0304
-20.4044 27.7396
-24.1565 42.8336
7.98999 -52.8658
-5.9994 -55.4001
18.9364 21.1058
-13.8531 -7.9806
25.2306 -51.1604
-2.72919 39.4754
0.498863 -26.0474
41.8022 -53.406
34.6004 -21.8376
6.99746 -42.686
34.2076 -10.7541
46.415 56.3057
-9.98725 -42.9247
-3.83589 46.7009
-44.7992 -32.7426
-29.1618 -4.79318
30.9351 53.9129
21.3185 -30.4342
51.9431 -32.4654
14.9942 35.1141
32.2154 -34.8367
-52.9359 -53.4248
47.4424 24.3104
20.2818 31.0677
25.0488 21.8923
53.5978 55.1517
-37.3612 14.8747
53.8934 35.6565
23.5222 8.59907
42.771 -48.653
-26.2612 -55.1772
33.7514 52.5399
-53.3324 -21.7981
9.54502 35.8103
23.7225 52.7597
56.0687 21.7132
-25.608 -25.6573
10.7817 -22.1258
40.8344 -52.091
-46.9038 -34.3046
8.80394 -50.842
9.8311 43.6852
21.4342 -49.7888
27.6465 -0.624028
25.1255 43.4698
35.9474 23.644
42.0648 42.3415
30.6772 29.8083
-51.4784 -54.5541
37.9455 46.0287
-38.9182 -31.6515
-38.1493 -54.8188
-42.351 14.4912
-36.2632 53.0898
40.9362 35.8092
45.8622 57.1637
-13.8253 -35.3446
-30.4711 -28.0318
-44.6495 52.6264
48.4585 38.0955
-12.5856 -35.6315
45.3382 -12.1742
-13.1421 -56.7726
-17.5773 -34.8738
35.036 24.3279
-55.854 45.2302
44.7021 10.6605
-46.5756 -31.6801
-34.579 47.819
-39.8823 -32.4265
41.4644 -12.9816
-23.5835 -35.3891
-45.9037 -30.8355
9.35692 50.2213
41.3456 -4.2558
14.9473 -41.6711
-7.622 -47.9097
46.1239 2.67517
10.6852 57.1631
23.9369 47.6223
-24.6058 56.7344
7.74655 -32.896
-39.3696 -38.6231
-13.2785 50.1415
-22.0266 -51.0437
-19.7091 -6.05454
-36.2164 -1.55321
2.75038 -26.8685
-20.5739 47.5223
17.946 -18.7882
-19.9004 39.1946
6.50156 -23.3565
-14.6845 29.4709
-55.0728 -8.99986
-3.4047 -37.6496
3.59668 -42.1086
0.865399 -16.861
-0.853321 -24.6831
51.6984 -6.94051
-1.78219 44.6023
-5.1389 49.0255
30.3168 -48.4759
7.8366 -36.2574
51.7021 -47.1281
-11.2754 50.1222
-0.933859 -37.2821
-47.5292 -32.3337
0.999017 54.6069
31.6994 -16.6416
7.52468 -43.5377
-50.2405 -31.357
-42.9251 -44.1383
18.6336 -21.0508
37.2421 -39.4592
0.0650718 -54.6098
34.5545 -47.3909
44.1507 24.9626
46.6701 48.1439
-36.1525 -32.3951
14.1205 -52.6661
28.9715 -33.449
14.9826 52.2884
-52.5107 37.6332
9.98457 46.6755
-50.8166 -49.2276
33.1692 -42.1841
12.8067 39.3705
21.1807 37.4271
21.5202 46.0785
32.0197 -24.1743
36.386 56.4661
35.6224 39.6452
-28.8489 -33.0185
-13.9434 -42.8284
46.9739 -0.49453
-41.1293 -43.0551
-46.8642 -54.8013
-5.51568 50.346
27.5409 -52.9147
-34.9037 -36.0313
31.1045 49.9047
-49.385 54.0626
34.3124 25.013
16.7715 24.085
19.6742 -22.8572
38.1895 -29.3921
-54.6664 49.7254
-47.7232 -38.8229
28.8162 28.7378
36.3405 -30.2286
-49.8012 56.7597
28.1017 41.1002
-52.1189 47.9173
35.3042 56.6127
42.3729 17.1994
-49.962 -28.1933
-56.7929 31.9534
-32.4924 46.7636
12.407 38.4206
-15.2418 -55.5334
-7.18673 35.9659
-15.2397 -33.5028
-13.5215 46.3861
34.397 19.2692
-41.7671 -45.0608
49.8656 45.5065
-10.4561 41.3407
43.0525 46.4192
31.1058 24.0069
-21.2201 -43.3877
-53.1693 -5.63447
-23.9281 55.9472
-20.3351 -51.1807
-52.9081 53.8139
-49.4973 -17.6169
-23.2846 -12.7515
-41.7984 -26.4271
-9.38884 -17.6278
-55.3265 -7.84634
-23.0069 -51.6259
-47.7109 7.29339
-24.7332 -36.5553
5.89116 -30.1532
41.1182 -13.9473
-56.6617 26.3384
33.1346 -32.6411
7.81196 -54.5744
-47.4296 -17.5418
-21.2013 -36.6
-47.764 10.6724
53.7007 -0.518492
-47.7512 19.7807
-46.3772 -19.1233
20.4194 -44.9225
8.49446 -53.8039
15.8492 -22.3692
-12.6855 -48.2081
-42.6791 -18.5628
9.76982 -38.8553
13.0725 -46.2913
25.7857 -40.5334
9.04502 -40.5796
17.3742 41.1945
-48.397 -45.9843
-16.4663 38.3982
33.5145 49.4566
12.6748 -15.9191
24.8511 -53.0118
-16.6282 -35.3263
56.2961 -46.4749
20.3362 -41.1074
11.7197 -22.6368
20.305 0.825098
4.67074 38.3095
-56.0031 33.646
18.6143 53.1313
-9.87234 46.6739
24.2111 23.7091
34.5963 -46.287
-40.8364 -52.2763
47.3879 -52.9284
-2.18069 -42.0409
36.682 -38.1004
-31.4017 46.9435
15.3696 49.3562
44.4838 -42.8065
35.2456 27.4403
39.0904 -53.6023
17.8486 10.893
41.3484 41.6209
22.9211 -47.0886
16.8153 29.7109
38.4174 56.6095
54.7139 13.7945
-32.7677 -28.6607
24.8735 26.4251
45.7964 34.0141
-51.8543 21.4723
47.036 19.8394
50.0611 13.2869
-43.0743 -47.1093
15.5319 -25.0183
49.6919 -55.6268
26.9802 39.1348
7.55669 55.4093
39.6024 -46.4466
39.6218 42.3652
39.0515 31.5581
-35.3188 -34.6813
-45.7653 -51.838
-25.0306 -20.9184
44.1861 55.1578
28.3648 39.3513
-14.3369 -50.8584
-56.3447 -29.3741
45.9087 -33.938
-34.6618 -57.2313
52.0487 23.132
28.7472 -4.21103
-28.5857 23.8257
-22.5198 -33.7262
-38.5663 56.201
-49.7502 -29.2406
48.5487 26.4776
-42.2662 -50.4743
-24.1725 -24.3678
45.3088 32.5783
26.2059 44.0566
-49.7954 -44.3073
-47.0862 -21.0016
-41.9902 51.0435
-0.398105 33.4029
-25.0536 -33.0301
-38.9077 -37.5362
18.0247 5.65734
41.5187 -6.30916
-35.3646 -23.308
-51.4879 4.47976
54.9973 -22.8717
-21.2161 -52.7439
-13.8342 -28.4484
-17.6379 -56.2613
-32.7448 -22.3689
-9.0726 44.7249
-14.6639 -34.6802
-47.6749 -11.7516
25.4721 -45.7741
-16.7114 -48.6317
22.953 -44.7996
3.28563 -49.0062
-17.4953 -33.3127
-21.2524 -26.5512
9.89402 -50.6766
1.21658 -28.3935
-11.4654 -30.5357
-32.7808 -19.9734
11.0266 43.4404
1.58831 -15.9154
39.8543 40.1156
-12.6298 56.4428
2.56372 -38.3231
19.7592 -54.227
6.35902 -55.8514
23.5895 41.1407
6.2807 -6.04293
-14.5714 -49.6181
31.9448 -41.3425
43.5578 -42.4295
-20.3634 -52.1848
4.13356 46.574
52.2339 21.2671
-4.5217 50.2321
44.3212 -27.1384
24.6621 46.8262
48.4649 -3.90167
-18.7837 -44.351
-6.16702 -38.2274
47.1604 -41.7593
27.1648 -38.4773
21.5241 -41.2049
18.657 26.0258
19.9187 -1.60677
-14.6813 47.1062
56.0142 -39.1591
1.98252 52.9894
29.2674 34.479
20.2615 25.9323
29.618 -43.8618
-1.64238 -45.1243
34.3748 35.1689
18.8522 4.8272
23.7144 -35.2094
34.5963 26.0001
36.88 33.1651
-46.614 7.63201
16.9135 21.871
33.96 36.0702
-42.1209 48.3893
-54.6568 45.517
38.7798 52.5116
32.2948 49.3743
-52.4246 43.1254
13.3289 -0.822314
40.9858 -40.6144
40.1915 55.335
7.29284 36.2888
-51.6662 -38.6131
-55.5882 28.6144
33.9896 44.3217
41.7178 31.666
-44.675 -33.7319
-23.861 -55.3972
20.6825 36.3975
-30.6888 -34.2156
-54.7342 -44.3608
47.346 32.4016
38.8522 53.7328
-46.0977 -42.3287
-44.3753 -27.5004
-7.74967 -54.729
-50.9426 19.1223
-36.0474 -52.8397
-4.11494 49.1176
-55.6137 1.80409
42.0961 51.7371
32.6652 -15.5108
-54.8946 -56.8671
-19.6681 -55.6573
-32.6072 33.4404
-45.5022 -44.5753
-37.6706 -1.90138
-33.4897 -45.4124
-41.2917 -25.1541
34.0095 -30.1402
-56.3441 -9.29355
-51.839 53.4117
-31.0996 -3.12516
-29.2669 45.8436
-32.4475 -0.0306231
45.1169 -4.63275
-10.052 -45.5391
-35.1828 -21.9651
-16.651 -19.1316
44.1849 -17.4911
39.2066 -3.72513
-27.9743 -17.0813
50.8563 -24.9598
50.1228 7.13925
-45.3008 -20.4741
-26.7415 -50.8825
5.62878 -22.5794
-2.94868 42.8512
1.51608 39.0354
-52.9084 -27.5085
-7.7965 -53.3861
-21.8404 -48.8374
47.9524 -22.2714
40.9821 34.183
-16.3315 -27.6771
18.099 -53.9171
37.0662 -25.0737
36.562 -27.2374
-28.9267 39.3292
6.31312 -29.1683
31.911 -40.1471
-15.8459 35.6853
24.9272 51.91
12.4602 -38.0764
8.65028 -32.4398
18.7522 -56.4897
-53.725 -36.2025
-51.635 -41.2665
17.0878 -23.5388
29.5953 -50.6273
-6.12351 36.0398
-1.168 -7.48925
13.1782 -33.8486
53.1061 -53.473
17.29 -27.4649
25.5125 28.5304
23.5153 55.2821
16.6537 43.6271
13.3103 33.6746
40.4301 -39.7717
17.5968 -16.6331
18.0436 39.3773
30.1743 28.6516
-46.4489 48.3817
45.8664 31.6627
-32.8139 54.6691
30.1 51.4129
25.1653 18.8498
27.8435 -39.3145
-28.1706 -21.0638
-42.0701 -47.5844
19.8706 -33.2688
3.7771 -47.8031
7.15641 37.5529
37.7854 -38.2112
48.7701 -41.9903
13.0968 -14.9445
27.1425 50.5681
22.6296 49.7096
42.8534 36.6079
42.4894 -44.6333
47.6728 42.2274
33.387 43.5127
-20.3593 53.5939
52.0424 -42.8725
41.1674 40.2665
46.7912 -43.7805
43.6212 -23.1411
55.0055 4.2307
40.6731 -55.4365
-38.3633 -46.1102
29.6126 -2.48134
42.8898 -50.4913
16.1212 38.3479
44.4987 52.7339
41.3605 30.6139
-43.4969 51.1353
-26.7225 -52.518
-24.0682 52.8018
49.6518 -37.2452
-23.2574 -5.47009
55.2032 27.9977
-29.7227 -50.9913
-53.595 20.3196
-50.5956 -43.5759
-17.57 -37.9244
-43.7737 38.3962
46.1471 -11.2957
44.0182 -47.5806
5.62112 -50.5506
-31.9297 -54.4604
-45.0319 -23.4752
44.2487 -30.6957
-21.6036 -41.6043
-0.977294 51.2547
25.7124 -25.5627
40.2832 -3.72823
40.5137 -1.62125
-2.32881 43.6323
48.1079 -0.819446
-26.1376 -41.5792
-10.2626 35.632
-47.8714 -25.2704
-24.8811 -9.63936
-1.87056 -30.4279
54.3211 -11.1147
4.26269 -55.2008
-12.5532 48.2193
-47.6742 -50.1042
0.837071 -33.5788
38.3531 -42.6226
40.0901 11.0737
29.2086 -39.7695
-11.8426 11.9465
-5.27389 -38.7231
-1.23023 -39.9065
26.5166 -42.4037
30.8778 -30.6278
2.48251 -42.7453
34.1966 -44.0855
-15.9288 -14.2272
33.607 -38.8167
0.728533 -42.7178
-8.27866 44.0622
13.0683 -26.712
7.00315 48.1128
35.4936 -45.7088
12.0872 -19.5014
23.6384 49.428
25.4732 -52.2274
30.0652 40.7602
37.4564 47.0183
1.07241 33.0038
7.1972 -14.4589
-2.60009 -29.1008
8.28044 -47.1358
42.7441 -47.6414
-33.1605 52.5969
36.7289 21.2262
54.8835 -52.7949
51.7005 -9.19954
-42.3958 -29.8073
38.7446 -28.4637
14.7019 31.7505
35.3167 -43.4509
-41.0613 32.8215
42.0892 -49.4134
37.4278 -37.261
40.3763 -28.8905
36.6334 39.5502
33.2751 35.1693
8.45098 45.0373
29.7823 47.1625
-7.03575 -38.7445
-32.6889 -34.2245
33.9495 -43.0749
37.5007 -7.9313
36.1968 34.278
-38.2644 28.518
-44.8521 -9.36924
37.5579 45.0038
40.2249 -35.4769
34.0603 26.8814
41.3105 51.0081
-26.1964 -43.2373
42.5889 48.8988
46.2128 -44.6503
-34.6642 -19.6685
56.3505 56.8994
-43.5235 -19.5957
54.595 42.5829
-27.7117 -31.3929
-20.8375 34.9025
26.9675 -8.28341
-22.3069 56.4764
-28.3161 -55.6147
-47.31 -53.5203
-36.0389 -51.8336
-22.7878 -18.8275
-50.004 -21.1394
14.7455 -33.5289
-20.4159 55.9983
38.6033 -51.5065
-47.475 -49.105
-52.6579 -54.6856
-28.9439 53.4257
-29.7244 -45.1633
-39.8853 -37.7568
-20.5733 -27.5064
-32.2425 36.5323
-26.9085 49.2914
-27.3114 -45.2289
35.7816 42.8024
39.366 -29.5532
-34.3356 -11.8468
28.7621 -7.48096
-33.5344 -18.2153
-35.0826 40.2807
52.8599 -20.1545
-35.6664 50.4226
40.2164 52.987
-8.37316 -21.8492
-7.97749 -46.8357
19.936 -28.5676
45.3286 -15.6791
8.95179 22.9736
-5.09178 -23.2011
-21.0821 -30.5104
31.4393 -56.2735
-48.5181 -7.99249
31.1052 -46.1642
38.2178 -32.998
20.6906 39.6
-51.1721 -22.9323
4.44754 -48.8295
-15.8449 40.9991
-10.2591 -25.5591
7.47518 -55.5725
-33.8456 51.6787
-10.702 34.6879
11.6592 -18.4309
-44.3715 -41.042
12.9684 -30.0285
7.82453 -20.3056
-18.9242 -45.7514
5.79307 -33.6602
23.4779 -18.87
42.3399 -18.9312
1.2746 -10.737
-2.22289 -35.4688
44.8314 -51.2039
-43.9354 -31.7233
18.85 -54.6427
38.5817 -41.5133
50.6507 -47.5335
31.6254 -43.7365
40.2297 48.3577
-39.0965 -14.4241
56.1692 -40.7756
11.3022 -8.67388
44.5146 28.3585
-31.8487 54.4132
-9.87968 53.0285
-16.8139 -30.9051
31.3816 48.9524
16.4846 -26.7205
29.1807 -56.3502
-23.6917 51.5477
-29.3036 -55.1518
-45.1173 -54.2801
-53.8143 -32.2532
17.4989 42.2161
41.1375 25.0123
50.1148 -46.615
-46.1077 -46.4484
-53.5805 34.9622
26.4987 37.1583
-26.6992 -31.6525
15.8733 52.7975
47.1695 -48.4274
21.9003 39.2463
-21.7997 -18.456
-28.2459 40.3031
50.72 43.0948
50.7811 -55.6879
35.9931 -56.8949
46.5847 -42.5635
46.0721 -41.4213
26.1763 -13.4062
21.8325 28.291
-41.8572 -51.5944
-55.2815 -38.0468
-34.0445 -29.7781
-39.0952 -54.3121
18.1067 -19.9405
-54.5093 -42.4575
56.8484 -25.3627
-54.7739 -41.3156
30.8282 -24.0137
46.6507 -16.4908
29.8501 -53.4839
-48.7327 -47.3554
-56.8977 -18.4464
-30.9197 -55.2456
-48.322 46.126
-43.225 -16.6119
-36.8685 -24.9508
-50.409 -42.2045
-31.3234 5.44715
-30.1484 -15.7684
50.9709 46.3324
-7.28521 -27.4319
-47.0031 -46.0006
-56.5375 -55.3966
-18.1646 14.6343
-21.0908 26.0049
-29.1073 -15.2873
-1.19442 -42.5109
53.2611 -15.7457
46.7091 6.39471
-9.17453 20.9335
-46.121 -54.1161
-47.3562 -33.3659
4.89578 -43.2946
40.0128 -23.4822
4.66464 52.99
-12.2592 55.2221
-29.2379 -39.595
-7.20717 -43.6414
-26.5671 -14.4552
-15.5349 -41.0439
46.0249 1.57558
3.55197 -35.524
47.2988 38.0451
21.9113 -36.5196
19.8428 -45.7627
22.4975 52.0471
-17.4312 -5.74169
17.0169 -45.8372
36.0275 -33.8722
7.98826 -42.5622
42.7466 49.9113
19.6325 -8.09358
-21.1958 -39.6643
22.9313 -5.34477
-8.90956 47.7185
15.6223 29.5446
7.63252 -27.1881
16.5605 22.8967
44.4439 -32.4686
39.486 -42.2403
-2.05596 -56.066
7.48748 41.3215
6.42988 -49.0658
-29.0082 -31.1821
2.4198 -41.2089
-40.7255 -44.0862
-27.4833 -23.655
52.7401 48.8869
8.26661 -56.1805
28.1626 31.1817
28.126 45.4269
35.382 5.39903
-55.1445 44.4645
21.2025 30.6798
-37.0213 42.1369
39.9718 -52.7139
-28.9103 -42.0524
19.8786 42.6618
49.6158 -31.2862
-18.4062 -38.8706
-47.2124 -40.8842
-50.592 -38.2583
50.047 -43.1391
-38.6846 -32.9641
21.2887 47.0998